LAMMPS data file via write_data, version 2 Aug 2023, timestep = 69570, units = metal

6 atoms
2 atom types

0 10 xlo xhi
0 10 ylo yhi
0 10 zlo zhi

Masses

1 12.0107
2 1.00794

Atoms # atomic

3 2 6.172223574909113 4.095610122713914 4.417884869174503 0 0 0
2 1 5.6802531605188955 4.983394032291451 4.932380534021182 0 0 0
5 2 3.6713057636178545 4.297502181088975 4.646385797269018 0 0 0
4 2 6.2884617730733385 5.73863849530031 5.376514039852698 0 0 0
1 1 4.323402225956693 5.018113108537021 5.068771492488433 0 0 0
6 2 3.8269044035731006 5.849872365267057 5.547328600191763 0 0 0

Velocities

3 -2.6162943154135405 -19.70222316850287 8.126647216353508
2 -0.8094286542012685 -4.134950426020928 -4.454966380124945
5 -19.631769659113015 -0.861628277949162 16.31287856574162
4 8.729866393505713 3.763508576381864 -17.099442889717615
1 2.2351655132859927 5.256892401014218 5.789394286930334
6 -3.4710058372478367 3.4311855005381044 -23.24124095760743
