6
energy=-373.157415 Lattice="12.718 0.0 0.0 0.0 12.718 0.0 0.0 0.0 12.718" Properties=species:S:1:pos:R:3:Z:I:1:force:R:3
C 6.223703 6.014748 6.704891 6 -0.30842050 1.67836027 -0.22641819
H 5.884025 6.579402 7.565131 1 0.17705298 0.59495215 0.07033566
H 6.204081 5.017946 6.900104 1 0.24300079 -3.28521347 0.35798369
C 6.466750 6.545023 5.509963 6 -0.95783534 1.09610320 1.81485714
H 6.622432 5.986268 4.627684 1 0.44807727 -0.45253968 -1.01587341
H 6.273447 7.612625 5.548042 1 0.39394214 0.36465879 -1.00309605
6
energy=-373.031478 Lattice="12.718 0.0 0.0 0.0 12.718 0.0 0.0 0.0 12.718" Properties=species:S:1:pos:R:3:Z:I:1:force:R:3
C 6.953183 6.012845 5.846334 6 1.39224616 0.40535167 -1.65541727
H 6.657872 6.120764 6.957397 1 0.33822938 0.22915436 -1.93308118
H 7.270231 4.957335 5.538425 1 -0.68869567 1.23056119 0.42783393
C 7.176007 7.055255 4.931347 6 -0.85236450 -0.39819732 2.58731376
H 7.518204 7.122558 3.871683 1 -0.18368900 -0.99964974 0.80681583
H 6.974827 8.076927 5.327350 1 -0.00485990 -0.46762846 -0.23462979
6
energy=-373.305738 Lattice="12.718 0.0 0.0 0.0 12.718 0.0 0.0 0.0 12.718" Properties=species:S:1:pos:R:3:Z:I:1:force:R:3
C 7.168570 7.250068 4.920613 6 0.01849293 0.87534967 -1.90309953
H 7.504190 7.206593 3.871907 1 0.06157334 0.30717351 0.30329886
H 6.808570 8.199365 5.330602 1 0.23752794 -0.00427420 -0.25800267
C 7.031943 6.162553 5.630119 6 -0.49313640 -0.78729189 2.77444907
H 6.635398 6.390356 6.658233 1 0.27626626 -0.84935837 -0.63729877
H 7.318386 5.120488 5.425329 1 -0.10000467 0.46442744 -0.28300770
6
energy=-373.253745 Lattice="12.718 0.0 0.0 0.0 12.718 0.0 0.0 0.0 12.718" Properties=species:S:1:pos:R:3:Z:I:1:force:R:3
C 7.118209 6.631730 4.971310 6 -0.98948513 2.08541041 -0.67544214
H 7.444743 6.003684 4.184888 1 0.72779961 -0.64621845 -0.82294900
H 6.842692 7.661768 4.686291 1 0.27390547 -0.24991449 0.02083315
C 6.825540 6.157911 6.160754 6 -0.37873868 0.68497888 0.48705368
H 6.324964 6.792142 6.924394 1 0.50870238 -0.78001721 -0.19453752
H 7.098047 5.133650 6.229877 1 -0.14190648 -1.09611297 1.19564507
6
energy=-373.101186 Lattice="12.718 0.0 0.0 0.0 12.718 0.0 0.0 0.0 12.718" Properties=species:S:1:pos:R:3:Z:I:1:force:R:3
C 7.437214 7.691414 4.800129 6 0.13851057 1.30458896 0.99856627
H 7.881952 7.736387 3.758561 1 -0.46698672 -1.09419955 1.22717865
H 7.221447 8.743792 5.123686 1 -0.07634022 -0.62344308 -0.34585013
C 7.250401 6.778495 5.798602 6 0.95306749 -1.36552415 -2.86719602
H 6.802299 7.110423 6.721752 1 -0.03565660 -0.12485234 0.41117317
H 7.495150 5.652300 5.616707 1 -0.51187255 1.90990935 0.57585399
6
energy=-373.153458 Lattice="12.718 0.0 0.0 0.0 12.718 0.0 0.0 0.0 12.718" Properties=species:S:1:pos:R:3:Z:I:1:force:R:3
C 6.422403 6.792580 5.589072 6 0.55068852 -0.68027376 -0.65696206
H 6.741166 6.442007 4.546923 1 -0.49255944 0.62693516 1.18259466
H 6.307158 7.957259 5.657994 1 0.00852476 -2.35166993 0.43918587
C 6.327658 5.792329 6.528507 6 0.05119739 1.64407664 0.16922190
H 6.095836 6.016761 7.600371 1 0.04430014 -0.05147301 -0.79514610
H 6.541265 4.714632 6.350905 1 -0.15810547 0.80295198 -0.33567781
6
energy=-373.017490 Lattice="12.718 0.0 0.0 0.0 12.718 0.0 0.0 0.0 12.718" Properties=species:S:1:pos:R:3:Z:I:1:force:R:3
C 6.926840 6.280933 6.059908 6 0.39050354 0.99384161 -4.01747086
H 6.487624 6.955311 6.776421 1 -0.09022059 0.07695574 0.56281591
H 6.973413 5.178428 6.262190 1 0.16332687 1.09227739 -0.13673291
C 7.211799 6.792953 4.765991 6 0.19798126 -1.46873962 1.49869299
H 7.641018 6.145093 3.979133 1 -0.22457419 -0.41487145 0.55291716
H 7.183588 7.796155 4.263392 1 -0.43639622 -0.28561017 1.53177797
6
energy=-373.201409 Lattice="12.718 0.0 0.0 0.0 12.718 0.0 0.0 0.0 12.718" Properties=species:S:1:pos:R:3:Z:I:1:force:R:3
C 6.627454 6.756503 5.335701 6 1.41211463 -1.51987478 -0.73956447
H 6.997155 6.366022 4.290764 1 -0.99596123 0.81583578 1.90970829
H 6.744624 7.795793 5.549120 1 -0.36446133 1.01742224 -0.21087329
C 6.481157 5.891253 6.356894 6 0.43599924 -1.03774529 -1.27449366
H 6.310320 6.091545 7.414010 1 -0.09717029 0.38695182 -0.12385578
H 6.640171 4.826121 6.085920 1 -0.39215162 0.34419588 0.44186548
6
energy=-373.114187 Lattice="12.718 0.0 0.0 0.0 12.718 0.0 0.0 0.0 12.718" Properties=species:S:1:pos:R:3:Z:I:1:force:R:3
C 6.390362 5.592776 6.196164 6 -0.07818936 4.01462311 -3.26395146
H 6.328162 5.269304 7.135457 1 -0.18154470 -2.46064622 3.62108052
H 6.516635 5.037899 5.286271 1 0.19313729 -0.66192687 -0.11734163
C 6.262341 6.942938 6.148205 6 -0.12140244 -0.68957396 -0.53852463
H 6.279204 7.582317 5.267863 1 0.10838287 -0.31070313 -0.42639977
H 6.041132 7.518319 7.029591 1 0.07788134 0.11456381 0.72223934
6
energy=-373.106986 Lattice="12.718 0.0 0.0 0.0 12.718 0.0 0.0 0.0 12.718" Properties=species:S:1:pos:R:3:Z:I:1:force:R:3
C 6.517539 6.679079 5.488205 6 -0.42686308 0.28630488 -0.54142432
H 6.755711 6.069392 4.668891 1 0.73362933 -0.07989246 -1.98322236
H 6.231935 7.717387 5.360460 1 0.23148327 0.15708783 0.20609875
C 6.352892 5.915122 6.530301 6 -0.78115004 -1.18981535 1.81727501
H 5.933852 6.181080 7.465368 1 -0.30864470 1.07621673 1.17011400
H 6.444897 4.832379 6.554455 1 0.55357330 -0.23479177 -0.66216650
6
energy=-373.268417 Lattice="12.718 0.0 0.0 0.0 12.718 0.0 0.0 0.0 12.718" Properties=species:S:1:pos:R:3:Z:I:1:force:R:3
C 7.044416 7.032877 5.283588 6 -1.49214593 -1.83708692 1.13846935
H 7.217343 7.143293 4.212845 1 0.35795027 -0.14012111 -0.00618968
H 6.674107 7.964242 5.760886 1 0.50098135 -0.56652447 0.14271535
C 6.910610 5.764258 5.842260 6 0.91541982 2.77615474 -2.19294585
H 6.657311 5.530168 6.844313 1 -0.36463925 0.12843595 1.09612428
H 7.168967 4.920826 5.217568 1 0.08206967 -0.35805877 -0.18139454
6
energy=-373.207614 Lattice="12.718 0.0 0.0 0.0 12.718 0.0 0.0 0.0 12.718" Properties=species:S:1:pos:R:3:Z:I:1:force:R:3
C 7.079747 6.972713 5.939417 6 0.09487943 1.49717450 0.09687615
H 6.920754 7.855966 6.579896 1 -0.12424608 -0.48910439 -0.08045039
H 7.121414 6.002214 6.344896 1 -0.25343125 -1.18391518 0.98613395
C 7.370246 7.096047 4.653248 6 0.59645059 2.35810438 -0.56700116
H 7.643870 6.177665 4.143458 1 -0.01005765 0.23324190 -0.77107130
H 7.490891 8.185939 4.216065 1 -0.30313842 -2.41594756 0.33879553
6
energy=-373.198221 Lattice="12.718 0.0 0.0 0.0 12.718 0.0 0.0 0.0 12.718" Properties=species:S:1:pos:R:3:Z:I:1:force:R:3
C 6.451599 6.357292 6.455996 6 -2.19810297 -1.40473659 3.44513312
H 6.049158 7.297590 6.880189 1 0.60033193 -0.27433690 -0.01518495
H 6.214995 5.438289 7.127575 1 0.84777302 1.35404057 -1.07495535
C 6.750949 6.296357 5.194643 6 0.35233394 -0.44317931 -1.94661085
H 6.945170 5.386547 4.598999 1 0.09313005 0.38234028 0.40608084
H 6.701270 7.244437 4.693094 1 0.30340685 0.38220350 -0.82899470
6
energy=-372.862268 Lattice="12.718 0.0 0.0 0.0 12.718 0.0 0.0 0.0 12.718" Properties=species:S:1:pos:R:3:Z:I:1:force:R:3
C 7.033763 6.900192 5.114862 6 -0.36074506 -2.66331562 -1.39905393
H 7.313695 6.716474 3.981182 1 -0.16584553 -0.33472085 2.20812771
H 6.745042 7.980243 5.109954 1 0.16451524 -0.81563267 1.23057765
C 6.835198 5.861843 6.066527 6 0.25503099 4.65287318 -2.48845066
H 6.465415 6.275443 6.990600 1 -0.16258742 -0.42816509 0.74326737
H 6.986812 4.808307 5.942719 1 0.27037483 -0.41774286 -0.29668958
6
energy=-373.049477 Lattice="12.718 0.0 0.0 0.0 12.718 0.0 0.0 0.0 12.718" Properties=species:S:1:pos:R:3:Z:I:1:force:R:3
C 7.193043 6.869875 4.869294 6 0.37268167 -3.19164222 -0.52629182
H 7.560798 6.210953 4.021541 1 -0.29220300 1.15424925 0.40423993
H 7.074913 7.948348 4.655424 1 -0.08300555 -0.57573726 0.55530006
C 6.919380 6.139036 6.003589 6 0.76351740 2.63924185 -1.13799627
H 6.658553 6.877511 6.773558 1 -0.33058342 -1.10265335 0.84311984
H 7.158065 5.056281 6.155663 1 -0.42899555 1.07328413 -0.13658121
6
energy=-373.043041 Lattice="12.718 0.0 0.0 0.0 12.718 0.0 0.0 0.0 12.718" Properties=species:S:1:pos:R:3:Z:I:1:force:R:3
C 6.662252 6.092363 6.204668 6 -0.32723996 1.39387264 0.81479500
H 6.278852 6.704593 7.138324 1 0.77750627 -1.08350890 -1.92632226
H 6.767627 5.022948 6.390064 1 0.16787927 -0.03662950 -0.13359924
C 6.946198 6.703097 5.034422 6 -1.68790729 1.57819156 0.25801039
H 7.142213 6.377374 4.028751 1 0.65924778 -1.51113405 -0.09397954
H 6.641609 7.763088 4.828196 1 0.41219235 -0.33851837 1.07067343
6
energy=-373.250324 Lattice="12.718 0.0 0.0 0.0 12.718 0.0 0.0 0.0 12.718" Properties=species:S:1:pos:R:3:Z:I:1:force:R:3
C 6.163939 6.215734 6.770333 6 0.26663027 2.56822793 -1.14642024
H 5.926392 7.035098 7.472681 1 -0.18512265 0.13789093 -0.68739006
H 6.239974 5.328531 7.323742 1 0.20727529 -1.77626332 0.26209124
C 6.480284 6.357365 5.453292 6 -0.15927790 -1.14672620 2.07522781
H 6.830925 5.455424 4.991650 1 0.09815605 -0.61440462 -0.62802119
H 6.503849 7.215328 4.811626 1 -0.22736847 0.82634955 0.12341715
6
energy=-373.213769 Lattice="12.718 0.0 0.0 0.0 12.718 0.0 0.0 0.0 12.718" Properties=species:S:1:pos:R:3:Z:I:1:force:R:3
C 6.633862 6.867854 6.059317 6 -0.02951166 -1.19386998 1.88469967
H 6.452268 7.892533 6.002531 1 -0.24019057 1.82235552 -0.98886858
H 6.615066 6.559238 7.096505 1 -0.21017498 -0.24227780 0.48998731
C 6.902024 5.944353 5.161661 6 0.88531218 -0.78701113 0.61884852
H 7.159245 4.925436 5.538542 1 -0.32231064 0.60001003 -0.68749548
H 7.124244 6.247201 4.169798 1 -0.08555712 -0.20298771 -1.31396578
6
energy=-373.081002 Lattice="12.718 0.0 0.0 0.0 12.718 0.0 0.0 0.0 12.718" Properties=species:S:1:pos:R:3:Z:I:1:force:R:3
C 6.830352 6.109396 6.174357 6 1.08814409 2.02860647 -2.60830272
H 6.474768 6.821781 6.898506 1 -0.39793918 0.27002979 0.56603751
H 7.047766 5.112492 6.632052 1 -0.12045627 0.52610105 -1.18916434
C 7.131819 6.697684 4.912625 6 -0.40214859 -2.31958922 2.82473114
H 7.552692 6.060146 4.130973 1 0.01659185 0.10347155 -0.08641227
H 6.995249 7.765310 4.647807 1 -0.18617680 -0.60962905 0.50137165
6
energy=-373.183760 Lattice="12.718 0.0 0.0 0.0 12.718 0.0 0.0 0.0 12.718" Properties=species:S:1:pos:R:3:Z:I:1:force:R:3
C 6.729991 5.708006 5.595234 6 0.04441584 3.12418928 3.91729341
H 6.798693 5.177905 6.563797 1 -0.07494822 -0.23894821 -0.55737700
H 6.853201 5.162350 4.733589 1 0.15157281 -1.01532988 -2.26289122
C 6.642446 7.065852 5.745282 6 -0.83061501 -0.45140839 -0.92023396
H 6.497528 7.777934 4.917668 1 0.36126236 -0.49266331 -0.30429748
H 6.475976 7.645545 6.671957 1 0.34688886 -0.93745676 0.13231215
6
energy=-372.968045 Lattice="12.718 0.0 0.0 0.0 12.718 0.0 0.0 0.0 12.718" Properties=species:S:1:pos:R:3:Z:I:1:force:R:3
C 7.079762 5.857255 5.401867 6 1.08801399 0.65942570 -0.60909375
H 7.088352 5.029865 6.199567 1 -0.24915756 1.80201088 -0.80882387
H 7.394781 5.539432 4.398957 1 -0.37053017 -0.79875233 0.13456906
C 7.053559 7.218985 5.387798 6 -0.85255939 -0.32057720 1.56366841
H 7.076548 7.875309 4.528341 1 0.40110935 -0.64253405 -1.03955586
H 6.848694 7.928743 6.197745 1 -0.01741461 -0.70655148 0.76588487
6
energy=-373.120889 Lattice="12.718 0.0 0.0 0.0 12.718 0.0 0.0 0.0 12.718" Properties=species:S:1:pos:R:3:Z:I:1:force:R:3
C 7.287471 7.026537 5.849178 6 0.33973553 -3.28048830 0.89205465
H 6.972091 7.506888 6.741861 1 -0.39440699 0.30340479 0.91478785
H 7.470736 5.939869 5.893843 1 -0.23064869 0.19386337 0.14170491
C 7.523013 7.713671 4.778178 6 -0.01387677 3.33037030 -0.06563414
H 7.927875 7.404467 3.825932 1 -0.05402354 -0.05987281 -0.19858444
H 7.347744 8.785661 5.092362 1 0.35609856 -0.47958924 -1.68927461
6
energy=-373.175193 Lattice="12.718 0.0 0.0 0.0 12.718 0.0 0.0 0.0 12.718" Properties=species:S:1:pos:R:3:Z:I:1:force:R:3
C 6.391793 5.631567 6.247641 6 0.24839034 0.46272897 0.09728958
H 6.237018 5.274035 7.341043 1 0.26061029 0.80730846 -1.79504318
H 6.662275 4.827127 5.531144 1 -0.32481952 0.39891260 0.31007681
C 6.338947 6.954166 5.885277 6 -0.16749875 -0.89041069 0.49396429
H 6.440399 7.420822 4.829437 1 -0.04200466 -1.01591969 1.80732432
H 6.141036 7.603256 6.766682 1 0.02626487 0.23431868 -0.91367713
6
energy=-373.259136 Lattice="12.718 0.0 0.0 0.0 12.718 0.0 0.0 0.0 12.718" Properties=species:S:1:pos:R:3:Z:I:1:force:R:3
C 6.199461 6.005145 6.893584 6 -0.14720090 0.05143804 0.49164464
H 5.853066 6.545001 7.833470 1 0.52498210 -0.47483013 -1.31801939
H 6.312747 4.940230 6.971212 1 0.04925414 -0.72853289 0.39606021
C 6.441824 6.574827 5.707034 6 -1.34876929 2.03765779 1.88388309
H 6.659259 6.063570 4.794647 1 0.33454910 -0.27420886 -0.52071253
H 6.189189 7.664595 5.757095 1 0.58635181 -0.60437268 -0.94559277
6
energy=-373.141230 Lattice="12.718 0.0 0.0 0.0 12.718 0.0 0.0 0.0 12.718" Properties=species:S:1:pos:R:3:Z:I:1:force:R:3
C 6.633716 6.398865 5.290161 6 0.54880905 -1.70853064 -0.89734290
H 6.925711 5.420667 4.829065 1 0.16470036 1.33065225 -0.88089297
H 6.516216 7.375578 4.799395 1 0.13290145 -0.55107625 -0.02937487
C 6.377009 6.153935 6.554492 6 -2.00620546 1.48100944 2.54722766
H 5.867469 6.981640 7.169250 1 0.98622446 -1.14710827 -0.40231160
H 6.410803 5.150179 7.027325 1 0.17250829 0.59592352 -0.34720048
6
energy=-373.200751 Lattice="12.718 0.0 0.0 0.0 12.718 0.0 0.0 0.0 12.718" Properties=species:S:1:pos:R:3:Z:I:1:force:R:3
C 6.879952 6.732529 6.074543 6 0.13720959 -2.06290399 0.65025508
H 6.649246 7.757620 6.459204 1 0.24585780 -0.57997701 -1.08557864
H 6.808708 5.973008 6.926599 1 0.06845053 0.89387756 -0.94006541
C 7.224383 6.229381 4.842186 6 -0.53427768 2.52637292 2.36939667
H 7.490927 5.191225 4.739165 1 -0.02680171 -0.30608851 -0.35190868
H 7.332597 6.993858 4.075703 1 0.10864821 -0.47518546 -0.64166245
6
energy=-373.148561 Lattice="12.718 0.0 0.0 0.0 12.718 0.0 0.0 0.0 12.718" Properties=species:S:1:pos:R:3:Z:I:1:force:R:3
C 6.771477 6.020400 5.283231 6 -1.45291909 2.49584413 -1.39390195
H 6.979931 4.998261 5.329287 1 0.59466882 -1.71179851 -0.20997546
H 6.611369 6.501020 4.259236 1 0.67801324 -0.51838156 1.30673481
C 6.388340 6.614106 6.411816 6 -0.25478468 -0.62156103 0.80894574
H 6.010488 7.579552 6.689471 1 -0.04322130 1.00382881 -0.94586788
H 6.305778 6.024339 7.312284 1 0.47876906 -0.64832778 0.43205260
6
energy=-373.323778 Lattice="12.718 0.0 0.0 0.0 12.718 0.0 0.0 0.0 12.718" Properties=species:S:1:pos:R:3:Z:I:1:force:R:3
C 7.090275 6.115984 5.486263 6 -0.53336082 0.18104693 0.50066356
H 6.690380 5.942776 6.489376 1 0.10059705 -0.53855908 -0.02542360
H 7.331467 5.241401 4.833865 1 0.02616768 0.79089041 0.57007157
C 7.136180 7.397016 5.091080 6 0.14164320 -1.73646055 -0.77112530
H 7.478163 7.499217 4.081991 1 0.25193384 0.85864571 -0.73307346
H 6.760416 8.237921 5.637414 1 0.01201272 0.43015718 0.46174475
6
energy=-373.119506 Lattice="12.718 0.0 0.0 0.0 12.718 0.0 0.0 0.0 12.718" Properties=species:S:1:pos:R:3:Z:I:1:force:R:3
C 7.095454 7.410327 5.263559 6 -0.83573459 -1.59880719 -0.88590662
H 7.255690 7.723022 4.213674 1 0.16287642 0.86218355 0.69975142
H 6.670693 8.113688 6.053724 1 0.79198570 -1.05017144 -0.99604916
C 7.112794 6.043106 5.310477 6 0.08713166 -0.32447191 0.95043107
H 6.850789 5.460886 6.226832 1 0.12342024 0.59865917 -0.34073878
H 7.433441 5.306361 4.500023 1 -0.32843809 1.50226888 0.57404290
6
energy=-373.268598 Lattice="12.718 0.0 0.0 0.0 12.718 0.0 0.0 0.0 12.718" Properties=species:S:1:pos:R:3:Z:I:1:force:R:3
C 6.410588 5.637317 6.106024 6 0.60983577 1.71614214 -1.67466507
H 6.588190 4.841957 6.815670 1 -0.23652006 -0.33314322 0.11100592
H 6.655036 5.479071 4.995044 1 -0.58237791 -0.20980885 1.58114421
C 6.179472 6.917705 6.484244 6 0.95023413 0.15465608 -0.00700832
H 6.247047 7.797143 5.799400 1 -0.36555817 -0.87416850 0.08147575
H 6.181597 7.255218 7.532152 1 -0.37523169 -0.45116311 -0.09293825
6
energy=-373.067078 Lattice="12.718 0.0 0.0 0.0 12.718 0.0 0.0 0.0 12.718" Properties=species:S:1:pos:R:3:Z:I:1:force:R:3
C 6.331591 5.903418 6.544424 6 0.98343686 0.51856668 -2.47281011
H 6.082367 6.337023 7.447669 1 -0.85657289 1.95979959 1.77149700
H 6.452648 4.879985 6.840485 1 0.40146468 -1.16457121 -1.20562662
C 6.558978 6.646588 5.411774 6 -0.91633257 -0.91399852 2.65735580
H 6.851079 6.321990 4.443762 1 0.33441334 -0.75448459 -0.75498750
H 6.338363 7.704306 5.484734 1 0.05357669 0.35560799 0.00419244
6
energy=-373.181049 Lattice="12.718 0.0 0.0 0.0 12.718 0.0 0.0 0.0 12.718" Properties=species:S:1:pos:R:3:Z:I:1:force:R:3
C 7.153248 7.656466 5.612262 6 0.95028555 1.15999310 -0.91550570
H 7.345633 8.686448 5.246617 1 -0.18006682 -0.61250972 0.20599796
H 6.882840 7.480483 6.603728 1 -0.73742942 0.48534492 1.93147013
C 7.400261 6.541843 4.947000 6 -0.87720086 0.71593756 0.37508720
H 7.067891 5.671781 5.462937 1 0.24089300 -1.27331044 -0.07582909
H 7.642053 6.587115 3.928175 1 0.60151567 -0.48772988 -1.53157434
6
energy=-373.272842 Lattice="12.718 0.0 0.0 0.0 12.718 0.0 0.0 0.0 12.718" Properties=species:S:1:pos:R:3:Z:I:1:force:R:3
C 6.673325 5.779006 5.465832 6 -0.35368172 1.45497701 0.73478890
H 6.991895 4.743167 5.666807 1 -0.31173414 0.52585628 0.22381006
H 6.638213 6.129443 4.461375 1 0.10530629 -0.36053937 -1.31122961
C 6.358949 6.771023 6.337824 6 1.05777574 -1.85593209 -0.24606606
H 6.195512 7.804089 6.088010 1 -0.31182310 0.31391598 -0.51967586
H 6.459758 6.569594 7.378669 1 -0.18540598 -0.07669298 1.12556343
6
energy=-373.009269 Lattice="12.718 0.0 0.0 0.0 12.718 0.0 0.0 0.0 12.718" Properties=species:S:1:pos:R:3:Z:I:1:force:R:3
C 6.455810 5.654554 6.304720 6 0.19780642 3.99923556 -2.86081865
H 6.176165 5.877362 7.275910 1 -0.53575195 -0.38531505 2.40486558
H 6.637270 4.636893 5.984486 1 0.04247825 0.03991435 -0.37703558
C 6.501906 6.861248 5.578321 6 0.40757054 -2.54654323 1.20814527
H 6.791783 6.957793 4.559104 1 0.25901775 -0.57770518 -1.20781154
H 6.385919 7.886760 5.951308 1 -0.36952692 -0.52164892 0.83413640
6
energy=-373.213382 Lattice="12.718 0.0 0.0 0.0 12.718 0.0 0.0 0.0 12.718" Properties=species:S:1:pos:R:3:Z:I:1:force:R:3
C 7.396794 8.095773 5.336492 6 0.93433184 -0.02140856 -1.92010019
H 7.686552 8.754463 4.503130 1 0.14411455 -0.42271023 -0.16373311
H 7.095939 8.732624 6.147094 1 -0.41763795 -0.39090309 0.95566379
C 7.484482 6.755242 5.282092 6 -1.07412488 -0.31113610 0.79218470
H 7.054355 6.247068 6.153809 1 0.30983049 -0.18502700 0.11856651
H 7.735338 6.007416 4.486034 1 0.10150105 1.33588959 0.21495261
6
energy=-373.201487 Lattice="12.718 0.0 0.0 0.0 12.718 0.0 0.0 0.0 12.718" Properties=species:S:1:pos:R:3:Z:I:1:force:R:3
C 7.249165 6.657414 4.635749 6 0.12531514 -2.34974006 1.51726717
H 7.501930 5.630872 4.340387 1 0.14683735 0.34862538 -0.78007480
H 7.235084 7.460582 3.942089 1 0.04137268 0.70779024 -0.60964345
C 6.943310 6.743225 5.943635 6 -0.18563327 2.29269701 -2.32198858
H 6.643168 7.775786 6.173166 1 -0.06359217 -0.50691752 1.20497253
H 6.921090 5.875198 6.550294 1 -0.06350321 -0.49058586 0.99117486
6
energy=-373.197132 Lattice="12.718 0.0 0.0 0.0 12.718 0.0 0.0 0.0 12.718" Properties=species:S:1:pos:R:3:Z:I:1:force:R:3
C 7.353093 7.338725 4.664731 6 0.77829354 -0.11644072 1.07874104
H 7.760829 6.596946 3.968790 1 -0.15300749 0.46928477 -0.49764406
H 7.330698 8.442785 4.363901 1 -0.15848548 -1.59504669 0.54402885
C 7.169747 6.827569 5.919037 6 -1.39976561 0.54708846 -0.76045213
H 6.691311 7.488193 6.693938 1 0.70071044 -0.77098903 -0.33436552
H 7.175810 5.701137 6.081691 1 0.23350724 1.46845371 -0.02684542
6
energy=-373.116798 Lattice="12.718 0.0 0.0 0.0 12.718 0.0 0.0 0.0 12.718" Properties=species:S:1:pos:R:3:Z:I:1:force:R:3
C 6.471779 6.397790 5.499734 6 0.26945746 -2.46368989 0.51520265
H 6.812691 5.409965 4.966858 1 -0.55692345 2.48280760 0.02119208
H 6.282331 7.420877 5.191130 1 0.45249288 -0.14155938 -1.07844022
C 6.188263 6.175430 6.785102 6 -0.42458971 -0.29679551 1.01188871
H 5.838020 7.009291 7.425101 1 0.13534451 -0.47466815 -0.12665212
H 6.224462 5.157530 7.255266 1 0.12354674 0.89944298 -0.34035568
6
energy=-373.256344 Lattice="12.718 0.0 0.0 0.0 12.718 0.0 0.0 0.0 12.718" Properties=species:S:1:pos:R:3:Z:I:1:force:R:3
C 6.606398 7.039607 5.703225 6 0.06334843 2.08822474 -0.56797715
H 6.704679 7.553863 4.675601 1 -0.37734154 -0.21383006 1.89387337
H 6.503589 7.545276 6.699207 1 0.08146598 0.21642482 -1.19165472
C 6.686513 5.737987 5.715995 6 0.70640339 -2.15716481 -1.24102045
H 6.753728 5.134661 6.598571 1 -0.28073124 -0.24365488 0.76643509
H 6.848576 5.154729 4.786508 1 -0.19167742 0.31651537 0.33111976
6
energy=-373.093008 Lattice="12.718 0.0 0.0 0.0 12.718 0.0 0.0 0.0 12.718" Properties=species:S:1:pos:R:3:Z:I:1:force:R:3
C 6.632406 6.655476 5.344050 6 0.62671250 0.44521563 -1.53921206
H 7.050901 6.198071 4.401434 1 -0.55555151 0.36346272 0.75912646
H 6.486068 7.807047 5.249818 1 0.11710663 -2.04187697 0.59612869
C 6.422854 5.904622 6.427324 6 -0.21112886 0.74234949 2.49197307
H 6.155116 6.420508 7.388682 1 -0.16303377 0.02295380 -0.81751266
H 6.557537 4.842363 6.748921 1 0.18586055 0.47188519 -1.48634089
6
energy=-373.124265 Lattice="12.718 0.0 0.0 0.0 12.718 0.0 0.0 0.0 12.718" Properties=species:S:1:pos:R:3:Z:I:1:force:R:3
C 7.012353 6.396245 5.791981 6 0.32283360 0.49910393 0.50549261
H 6.604641 6.717070 6.804707 1 0.51241968 -0.09377026 -1.33373141
H 7.275393 5.363261 5.751852 1 0.08518071 -1.02191756 -0.13750424
C 7.271933 7.254291 4.782073 6 -1.53724620 -0.96737569 2.42410567
H 7.490542 7.032312 3.772788 1 0.66759256 -0.35219870 -0.94181839
H 6.879563 8.184259 5.082105 1 -0.05032630 1.93576439 -0.52314016
6
energy=-373.311625 Lattice="12.718 0.0 0.0 0.0 12.718 0.0 0.0 0.0 12.718" Properties=species:S:1:pos:R:3:Z:I:1:force:R:3
C 6.164513 6.774762 6.773697 6 -0.40081367 -1.11944163 0.54124948
H 5.801355 7.799516 6.648329 1 0.35492922 -0.10824095 -0.63072291
H 6.073229 6.452588 7.829443 1 0.33037671 0.11100283 -0.34796204
C 6.476806 5.837298 5.855422 6 -0.32315653 -0.57687420 -0.13710006
H 6.676866 4.754263 6.105647 1 -0.06377369 1.19670642 0.22633797
H 6.446442 5.956514 4.759795 1 0.10372609 0.50497582 0.35074192
6
energy=-373.317929 Lattice="12.718 0.0 0.0 0.0 12.718 0.0 0.0 0.0 12.718" Properties=species:S:1:pos:R:3:Z:I:1:force:R:3
C 6.474280 5.704599 5.793611 6 0.33177590 1.30569454 -1.24690622
H 6.651161 4.762822 6.272491 1 -0.10550375 -0.50103535 0.67860923
H 6.721240 5.660835 4.695569 1 -0.57773141 0.23082455 0.87428369
C 6.167219 6.863311 6.425543 6 1.05321922 -0.44070282 -1.72828547
H 6.157928 7.829061 5.849813 1 -0.23306810 -0.85856858 0.67219432
H 6.188230 6.874213 7.495319 1 -0.46686844 0.25995826 0.75274138
6
energy=-373.220507 Lattice="12.718 0.0 0.0 0.0 12.718 0.0 0.0 0.0 12.718" Properties=species:S:1:pos:R:3:Z:I:1:force:R:3
C 6.761725 6.242552 5.174779 6 0.22164468 0.06227113 -1.74111991
H 7.000115 5.281071 4.824633 1 0.35144486 -1.50983410 -0.72310837
H 6.774175 7.031957 4.392640 1 0.05346561 -0.26681179 0.69450843
C 6.440514 6.434460 6.426424 6 -0.32011954 1.86859787 0.52103803
H 6.277871 7.509213 6.558083 1 -0.38555622 -0.17391931 1.23245147
H 6.356562 5.694228 7.215792 1 0.08082269 0.02908177 0.02432831
6
energy=-373.175618 Lattice="12.718 0.0 0.0 0.0 12.718 0.0 0.0 0.0 12.718" Properties=species:S:1:pos:R:3:Z:I:1:force:R:3
C 7.310593 6.378893 5.134056 6 0.25922241 2.64933447 0.23067748
H 7.102912 5.444217 5.710586 1 -0.05367233 1.10230470 -0.06809469
H 7.810515 6.222695 4.166906 1 -0.33621157 -0.27105257 0.09247493
C 7.161550 7.737192 5.468219 6 1.09554424 -3.59579524 -2.10816983
H 7.486435 8.505114 4.746503 1 -0.12495005 -0.36323749 0.19589866
H 6.850059 8.085056 6.400083 1 -0.84061404 0.46882197 1.65815807
6
energy=-373.078446 Lattice="12.718 0.0 0.0 0.0 12.718 0.0 0.0 0.0 12.718" Properties=species:S:1:pos:R:3:Z:I:1:force:R:3
C 6.932801 6.017282 5.086271 6 -0.70950774 0.10991885 2.56284198
H 7.231554 4.895657 5.161695 1 -0.64762690 1.90258068 0.35136978
H 6.938444 6.345374 4.062821 1 -0.04251888 0.54997581 -0.48609054
C 6.538070 6.810811 6.186512 6 2.10261213 -2.06333130 -2.35155526
H 6.435719 7.910469 6.216378 1 -0.32617604 -0.56965094 -0.47094673
H 6.695729 6.320480 7.142223 1 -0.37418731 0.06546548 0.39661557
6
energy=-373.262215 Lattice="12.718 0.0 0.0 0.0 12.718 0.0 0.0 0.0 12.718" Properties=species:S:1:pos:R:3:Z:I:1:force:R:3
C 6.278441 6.952125 6.038340 6 -0.11402336 -3.31800895 2.41226573
H 6.517769 7.286725 5.076773 1 0.23842165 0.54959632 -1.50380538
H 6.037184 7.638269 6.825441 1 -0.20742955 0.75415549 0.23273745
C 6.343149 5.622148 6.388028 6 0.87758344 1.07200218 -2.68708600
H 6.229292 5.157345 7.333985 1 -0.46794934 0.19504968 1.29888317
H 6.667063 4.848135 5.643895 1 -0.32677099 0.74248833 0.23357923
6
energy=-373.287585 Lattice="12.718 0.0 0.0 0.0 12.718 0.0 0.0 0.0 12.718" Properties=species:S:1:pos:R:3:Z:I:1:force:R:3
C 6.590167 5.849827 6.053997 6 0.97750738 -0.66299542 -0.92506661
H 6.404591 5.877405 7.112166 1 -0.20786613 0.24430640 0.52102569
H 6.841210 4.860796 5.669522 1 -0.34967696 -0.20547346 -0.14411095
C 6.754609 6.939811 5.295259 6 -0.91435333 0.12958678 2.65075526
H 6.932957 6.903204 4.250818 1 0.33482163 0.27187790 -0.93295887
H 6.590904 7.845344 5.912977 1 0.16096609 0.22771608 -1.17506286
6
energy=-373.157065 Lattice="12.718 0.0 0.0 0.0 12.718 0.0 0.0 0.0 12.718" Properties=species:S:1:pos:R:3:Z:I:1:force:R:3
C 6.963447 5.959033 5.133666 6 -0.51574309 0.70113159 -0.34627796
H 7.088303 5.014096 5.588656 1 0.23019103 -1.73588308 -0.39182663
H 7.034068 6.129939 4.030482 1 0.06876060 -0.11239945 1.04305462
C 6.636956 6.850092 6.065148 6 0.99926819 2.33498706 -1.13226168
H 6.678314 7.944403 5.911695 1 -0.58609933 -0.30197782 -0.47274085
H 6.646257 6.666049 7.103163 1 -0.19706748 -0.88769200 1.30338003
6
energy=-373.189457 Lattice="12.718 0.0 0.0 0.0 12.718 0.0 0.0 0.0 12.718" Properties=species:S:1:pos:R:3:Z:I:1:force:R:3
C 7.223510 6.470171 4.657396 6 1.02619845 0.10809183 1.17455738
H 7.599072 5.441830 4.523202 1 -0.66230225 -0.00737393 0.37321132
H 7.477650 7.019842 3.768092 1 -0.42698495 0.91738620 -0.31236920
C 6.938423 6.937739 5.899864 6 -0.15628307 -0.47667618 -0.30174745
H 6.708884 7.941677 6.328137 1 0.17671410 -0.38313064 -1.10574021
H 6.870232 6.180790 6.679949 1 0.04164162 -0.16046215 0.17810816
6
energy=-373.243966 Lattice="12.718 0.0 0.0 0.0 12.718 0.0 0.0 0.0 12.718" Properties=species:S:1:pos:R:3:Z:I:1:force:R:3
C 7.067961 7.088959 5.240484 6 -0.01678572 -0.23094642 0.86908440
H 7.237406 7.468017 4.247235 1 0.12674571 -0.27099961 -0.49184005
H 6.866994 7.791558 6.007622 1 -0.06801601 1.46857095 0.47852532
C 7.048200 5.846417 5.722115 6 -0.65222815 0.49420032 -0.65336509
H 6.745415 5.719335 6.766454 1 0.30101983 -0.41704506 -0.19985816
H 7.083614 5.045179 5.013107 1 0.30827960 -1.03699195 0.00099399
6
energy=-373.151455 Lattice="12.718 0.0 0.0 0.0 12.718 0.0 0.0 0.0 12.718" Properties=species:S:1:pos:R:3:Z:I:1:force:R:3
C 6.717000 7.012890 5.911802 6 0.88938481 -1.85622725 0.35417897
H 6.766504 8.007175 5.463827 1 -0.27347250 -0.34619517 -0.86591063
H 6.660825 7.180727 7.002216 1 -0.07366422 -0.73903739 -0.15372174
C 6.938430 5.787975 5.287544 6 -0.42745289 4.32611248 -0.95467803
H 7.082178 4.846467 5.769906 1 -0.15066881 -0.60013704 0.36203370
H 7.019409 5.910423 4.159578 1 0.03568642 -0.78468222 1.25934420
6
energy=-373.139495 Lattice="12.718 0.0 0.0 0.0 12.718 0.0 0.0 0.0 12.718" Properties=species:S:1:pos:R:3:Z:I:1:force:R:3
C 7.041453 5.933792 5.656729 6 -1.31519220 -0.81660455 2.51670762
H 6.679158 6.056419 6.760006 1 0.66553053 -0.95668966 -1.64205061
H 7.140264 4.861439 5.280984 1 0.08169326 1.69202877 0.09952388
C 7.101839 7.136811 5.099597 6 0.96849617 0.70191886 -0.56566573
H 7.477420 7.362101 4.096062 1 -0.25060818 -0.22595385 -0.10804246
H 6.968690 8.032612 5.734695 1 -0.14813987 -0.40072471 -0.29888479
6
energy=-373.149676 Lattice="12.718 0.0 0.0 0.0 12.718 0.0 0.0 0.0 12.718" Properties=species:S:1:pos:R:3:Z:I:1:force:R:3
C 7.227587 7.350709 5.963667 6 -0.83205020 -1.84262456 0.22020537
H 6.936889 8.110768 6.697145 1 0.47242460 0.97194557 -1.02615526
H 7.025876 6.415453 6.521789 1 0.41495578 -0.12235580 -0.39533002
C 7.508849 7.231619 4.647183 6 0.37183835 0.54010071 0.20357958
H 7.684801 6.224615 4.170954 1 -0.26847170 0.98526235 0.58881184
H 7.674283 8.112790 3.984862 1 -0.15884235 -0.53204441 0.40829353
6
energy=-373.233905 Lattice="12.718 0.0 0.0 0.0 12.718 0.0 0.0 0.0 12.718" Properties=species:S:1:pos:R:3:Z:I:1:force:R:3
C 6.168760 6.819893 6.700078 6 0.20411231 -0.46531190 -0.43485973
H 5.990502 7.683678 6.131433 1 -0.45059489 1.82193437 -0.24931799
H 6.095281 6.853386 7.778052 1 0.10765577 -0.12538868 0.23132592
C 6.464371 5.767894 5.938051 6 -0.39946436 -0.50263509 1.43589067
H 6.612659 4.838163 6.519502 1 0.18064944 -0.11628594 -1.11460590
H 6.393880 5.897306 4.854689 1 0.35471170 -0.61669856 0.12937029
6
energy=-373.294955 Lattice="12.718 0.0 0.0 0.0 12.718 0.0 0.0 0.0 12.718" Properties=species:S:1:pos:R:3:Z:I:1:force:R:3
C 7.226511 7.654686 5.859373 6 -0.33453984 -2.67521778 -0.34423239
H 7.205615 8.737812 5.915393 1 0.13679461 0.07594941 -0.15922288
H 6.929137 7.052082 6.747137 1 0.14209160 0.81908412 -0.15139438
C 7.491602 6.897260 4.755383 6 -0.31236355 0.91313051 2.30166451
H 7.507621 5.810199 4.702664 1 -0.17808502 -0.01140594 0.35695422
H 7.794240 7.397787 3.898702 1 0.54350897 0.86706248 -2.01027295
6
energy=-373.112209 Lattice="12.718 0.0 0.0 0.0 12.718 0.0 0.0 0.0 12.718" Properties=species:S:1:pos:R:3:Z:I:1:force:R:3
C 7.127373 6.823210 5.930867 6 -1.01481669 1.47595260 -0.77906436
H 6.699805 7.530905 6.687689 1 0.76233623 -0.17841155 -0.65379292
H 7.051177 5.834559 6.287022 1 0.23481748 -1.58774270 0.06602495
C 7.357401 7.231167 4.660248 6 0.49782146 2.47667860 0.64286572
H 7.677429 6.695723 3.734274 1 -0.27289503 -0.01541017 1.01957272
H 7.375791 8.406817 4.571215 1 -0.20575525 -2.17805864 -0.29245599
6
energy=-373.161310 Lattice="12.718 0.0 0.0 0.0 12.718 0.0 0.0 0.0 12.718" Properties=species:S:1:pos:R:3:Z:I:1:force:R:3
C 6.928159 5.777313 5.792484 6 1.69507142 1.02004786 -3.14277786
H 6.748313 5.732658 6.826375 1 -0.43078607 -0.96248339 1.30926014
H 7.314731 5.007985 5.083000 1 -0.66411539 -0.25102572 1.12940981
C 7.042334 7.025186 5.297412 6 -0.77831771 0.88210910 0.77437106
H 7.309865 7.356823 4.267250 1 -0.13753252 -0.54830254 0.69979307
H 6.751864 7.827982 6.019755 1 0.31670049 -0.13982697 -0.77597440
6