6
energy=-373.154073 Lattice="12.718 0.0 0.0 0.0 12.718 0.0 0.0 0.0 12.718" Properties=species:S:1:pos:R:3:Z:I:1:force:R:3
C 7.337615 6.967543 4.670256 6 -0.37801980 -0.41238930 -0.42940385
H 7.542171 6.037019 4.175340 1 0.02576144 -0.76900774 -0.43488390
H 7.407205 7.787160 3.908555 1 -0.14358542 -0.00495195 1.39155299
C 6.982098 6.879024 5.970305 6 1.50576044 0.04168533 -0.94311268
H 7.007777 7.798907 6.530176 1 -0.68905614 0.24990164 0.69424103
H 7.061360 5.888061 6.482153 1 -0.32129762 0.88668310 -0.28571301
6
energy=-373.175950 Lattice="12.718 0.0 0.0 0.0 12.718 0.0 0.0 0.0 12.718" Properties=species:S:1:pos:R:3:Z:I:1:force:R:3
C 7.144555 6.128218 4.925323 6 0.29220608 -0.51901457 4.85043586
H 7.610178 5.150476 5.006410 1 -0.16765096 -0.30701925 -0.89688370
H 7.127031 6.768137 4.120350 1 0.04136805 0.92487326 -2.33734168
C 6.852409 6.697166 6.140315 6 -0.04802824 -0.52524281 -2.10131115
H 6.529874 7.720483 6.090787 1 -0.32339719 0.65086340 0.41167968
H 6.842151 6.205939 7.106174 1 0.20457460 -0.23036998 0.06598741
6
energy=-373.098660 Lattice="12.718 0.0 0.0 0.0 12.718 0.0 0.0 0.0 12.718" Properties=species:S:1:pos:R:3:Z:I:1:force:R:3
C 6.926882 7.103664 5.498852 6 1.01955318 -3.05024327 0.53881619
H 7.177893 7.761663 4.627472 1 -0.39144302 -0.93585702 0.58166211
H 6.874341 7.542946 6.480248 1 -0.38209037 0.88125087 0.27885639
C 7.006034 5.710578 5.601540 6 -0.22703371 1.11096727 -1.91840428
H 6.822781 5.063648 6.484587 1 0.08242963 1.05253788 0.01701557
H 7.172794 5.029929 4.715590 1 -0.09931562 0.94279541 0.50476190
6
energy=-373.084019 Lattice="12.718 0.0 0.0 0.0 12.718 0.0 0.0 0.0 12.718" Properties=species:S:1:pos:R:3:Z:I:1:force:R:3
C 7.293870 6.614880 5.670473 6 -0.42886546 1.70700752 -2.56969501
H 6.754869 6.538171 6.602995 1 0.07124121 0.05166738 0.47048805
H 7.540185 5.657013 5.132457 1 0.03057404 0.89338597 0.70735367
C 7.352977 7.789376 4.929151 6 0.76845032 -1.57950385 0.53955975
H 7.837028 7.814101 3.957314 1 0.17885943 -0.80952167 -0.42865771
H 7.150005 8.850498 5.090024 1 -0.61868705 -0.25930879 1.28297934
6
energy=-373.106810 Lattice="12.718 0.0 0.0 0.0 12.718 0.0 0.0 0.0 12.718" Properties=species:S:1:pos:R:3:Z:I:1:force:R:3
C 6.224817 6.917598 6.377270 6 0.36441402 -2.57050645 0.08137239
H 6.193347 7.614002 5.640153 1 0.05124572 2.59763623 -1.94472520
H 5.984441 7.117953 7.367228 1 -0.35452813 0.88589942 1.85706338
C 6.440893 5.648178 6.042168 6 -0.81838066 -0.40111758 -0.97510288
H 6.238543 4.926097 6.846418 1 0.55698105 -0.41579910 -0.60707286
H 6.517643 5.377873 4.937131 1 0.20011476 -0.08650329 1.57886467
6
energy=-373.081467 Lattice="12.718 0.0 0.0 0.0 12.718 0.0 0.0 0.0 12.718" Properties=species:S:1:pos:R:3:Z:I:1:force:R:3
C 7.430381 7.612423 4.752553 6 2.00229173 -1.64933198 -2.25568801
H 7.939205 7.019694 3.904629 1 -0.86803899 1.43233174 0.57504820
H 7.341941 8.709118 4.712888 1 -0.18313621 -0.52144889 -0.04862782
C 7.245683 6.875001 5.826519 6 -0.81408332 -0.07631040 1.91965024
H 6.855288 7.395979 6.669747 1 -0.47257578 0.62883623 1.05678535
H 7.354400 5.820616 6.137368 1 0.33689600 0.18874276 -1.24321463
6
energy=-372.923358 Lattice="12.718 0.0 0.0 0.0 12.718 0.0 0.0 0.0 12.718" Properties=species:S:1:pos:R:3:Z:I:1:force:R:3
C 6.225811 6.857611 6.426709 6 -0.58164566 0.90849789 -2.17344042
H 6.052742 7.809416 5.871310 1 0.59553631 -0.66602110 -0.74757603
H 5.880205 7.246714 7.381077 1 0.51170492 -1.61153725 1.10654394
C 6.515309 5.699170 5.763289 6 -1.11984015 1.24466319 0.82508971
H 6.492305 4.743703 6.263709 1 0.26838994 -0.38071432 0.39882878
H 6.539575 5.611436 4.657788 1 0.32743176 0.50071807 0.59723015
6
energy=-373.040615 Lattice="12.718 0.0 0.0 0.0 12.718 0.0 0.0 0.0 12.718" Properties=species:S:1:pos:R:3:Z:I:1:force:R:3
C 7.249364 6.166390 4.842174 6 -1.57052195 3.30527786 3.14782596
H 7.501355 5.151815 4.683687 1 0.08133588 -1.36546861 0.69425389
H 7.276803 6.686561 3.911761 1 -0.00734102 0.85595685 -0.72715117
C 6.855263 6.834842 6.041995 6 2.16996737 -3.10674793 -2.23671120
H 6.770694 7.915394 6.199355 1 -0.28636659 -0.23065640 -0.49704293
H 6.946030 6.205508 6.957756 1 -0.38664637 0.55105876 -0.38970393
6
energy=-373.136222 Lattice="12.718 0.0 0.0 0.0 12.718 0.0 0.0 0.0 12.718" Properties=species:S:1:pos:R:3:Z:I:1:force:R:3
C 7.181312 7.081211 4.732147 6 1.27048068 -2.25142820 -0.02701666
H 7.710382 6.457073 4.017178 1 -0.09944006 0.51321827 -1.03713902
H 7.103849 8.118378 4.590626 1 -0.36874222 1.37770090 -0.03702803
C 6.996197 6.350029 5.817830 6 -1.64657832 1.53309129 2.45806483
H 6.559252 6.686460 6.794912 1 0.23108989 0.38151084 -0.82185783
H 7.141456 5.312767 5.903310 1 0.61451878 -1.54979627 -0.52683381
6
energy=-373.306612 Lattice="12.718 0.0 0.0 0.0 12.718 0.0 0.0 0.0 12.718" Properties=species:S:1:pos:R:3:Z:I:1:force:R:3
C 6.402670 6.649280 5.777968 6 1.00539616 -0.03664647 -1.97243297
H 6.803848 6.292756 4.788707 1 -0.39081619 -0.48564317 1.00878127
H 6.305564 7.732039 5.661336 1 -0.40391237 0.05856514 0.71288668
C 6.209210 5.953693 6.892474 6 -0.15179650 0.16797646 0.72375320
H 5.870022 6.527328 7.760807 1 -0.04502622 -0.16672228 0.10718628
H 6.368378 4.878836 7.097903 1 -0.01520963 0.45493595 -0.59026709
6
energy=-373.187360 Lattice="12.718 0.0 0.0 0.0 12.718 0.0 0.0 0.0 12.718" Properties=species:S:1:pos:R:3:Z:I:1:force:R:3
C 6.504425 6.456102 5.430814 6 -0.14300383 -0.44980711 -0.62158366
H 6.706523 5.733354 4.670033 1 0.40297494 -1.32729388 -0.18965345
H 6.468958 7.378433 4.834860 1 -0.24715518 0.62608155 1.27453789
C 6.259616 6.129768 6.706833 6 -0.14774649 -0.05296631 0.07576635
H 5.957782 6.923830 7.385296 1 0.05608608 0.05825044 0.33941260
H 6.286664 5.090476 7.161752 1 0.08332026 1.13416738 -0.88524996
6
energy=-373.224460 Lattice="12.718 0.0 0.0 0.0 12.718 0.0 0.0 0.0 12.718" Properties=species:S:1:pos:R:3:Z:I:1:force:R:3
C 6.890728 6.875403 5.982911 6 -0.07716143 1.07695618 0.23987638
H 6.747673 7.945579 5.697220 1 0.00932283 -0.50950354 0.72872161
H 6.730738 6.586922 7.080787 1 0.33430587 0.23356072 -1.67083824
C 7.238815 6.072343 4.963217 6 -1.11944009 0.79317921 0.70147715
H 7.242685 5.035760 5.225480 1 0.49320993 -1.00997684 -0.59879647
H 7.220861 6.476724 3.928460 1 0.35896585 -0.58375705 0.60277551
6
energy=-373.115991 Lattice="12.718 0.0 0.0 0.0 12.718 0.0 0.0 0.0 12.718" Properties=species:S:1:pos:R:3:Z:I:1:force:R:3
C 6.948969 7.086596 5.799417 6 -0.78336736 2.18850195 0.14593232
H 6.883825 8.220987 5.478216 1 0.16222696 -2.06950247 0.81530717
H 6.635125 6.893357 6.886333 1 0.69000745 -0.09303595 -1.64357887
C 7.234868 6.224872 4.820787 6 -0.04796653 -2.19946360 0.93068602
H 7.312077 5.096029 4.865067 1 -0.25241155 1.05752223 0.80132293
H 7.424126 6.462859 3.807142 1 0.23081324 1.11549499 -1.04811404
6
energy=-373.202057 Lattice="12.718 0.0 0.0 0.0 12.718 0.0 0.0 0.0 12.718" Properties=species:S:1:pos:R:3:Z:I:1:force:R:3
C 6.500078 6.200614 5.431908 6 -0.57614144 -0.89981784 3.28218265
H 6.714430 5.195062 5.133445 1 0.21949215 -0.57520555 -0.65145270
H 6.589420 6.999916 4.750045 1 -0.04442664 0.94896452 -0.81284353
C 6.173420 6.363579 6.747299 6 0.49780090 1.74742889 -1.85181472
H 5.983539 7.327448 7.202776 1 -0.12338579 0.81553239 -0.47230479
H 6.156452 5.702357 7.560936 1 0.02960782 -2.04394311 0.50690209
6
energy=-373.136490 Lattice="12.718 0.0 0.0 0.0 12.718 0.0 0.0 0.0 12.718" Properties=species:S:1:pos:R:3:Z:I:1:force:R:3
C 6.295505 6.850997 6.286543 6 0.11030298 2.84057172 1.29155449
H 6.243604 7.968569 5.951765 1 -0.04307475 -2.23091387 -0.57085010
H 6.215053 6.940465 7.388910 1 0.05970620 -0.64335063 -0.28946991
C 6.565343 5.697011 5.688025 6 -0.08586565 -0.83644628 0.34264911
H 6.685748 4.778303 6.359651 1 -0.22124616 1.04973435 -1.21097709
H 6.623696 5.610551 4.590514 1 0.17707971 -0.17873294 0.43005588
6
energy=-373.326453 Lattice="12.718 0.0 0.0 0.0 12.718 0.0 0.0 0.0 12.718" Properties=species:S:1:pos:R:3:Z:I:1:force:R:3
C 6.884320 6.499593 6.131534 6 0.35712031 -0.77918828 -1.09011715
H 6.581325 7.404285 6.699210 1 0.29167438 -0.18321386 -0.76434272
H 6.861233 5.606536 6.789649 1 0.07923580 0.19010442 -0.56641392
C 7.232071 6.457479 4.794840 6 -0.74108296 0.90697580 2.38442375
H 7.505695 5.568907 4.212762 1 -0.06830860 0.14259451 0.37935009
H 7.221703 7.434251 4.299031 1 0.08010432 -0.27704428 -0.34591904
6
energy=-373.231371 Lattice="12.718 0.0 0.0 0.0 12.718 0.0 0.0 0.0 12.718" Properties=species:S:1:pos:R:3:Z:I:1:force:R:3
C 6.500488 6.883566 6.126476 6 0.66603189 0.28814939 -1.58951727
H 6.390654 7.955490 5.852928 1 -0.31851723 -0.77677144 -0.50830643
H 6.539159 6.803569 7.168894 1 0.03091651 -0.63359381 1.77440646
C 6.796930 5.879874 5.277383 6 0.34123037 -0.17150864 1.09893399
H 7.155641 4.847468 5.498374 1 -0.61305788 0.68985575 0.64562915
H 6.821073 6.015464 4.231939 1 -0.10600923 0.59416385 -1.43497895
6
energy=-373.159599 Lattice="12.718 0.0 0.0 0.0 12.718 0.0 0.0 0.0 12.718" Properties=species:S:1:pos:R:3:Z:I:1:force:R:3
C 7.258567 6.778781 4.619304 6 0.86711030 -2.39360208 1.01775032
H 7.655656 5.808398 4.094546 1 -0.86567820 2.03475399 0.59907364
H 7.273699 7.773962 4.202905 1 0.02653175 0.00273720 -0.90712184
C 6.958800 6.759405 5.935515 6 -0.19643396 1.03076936 0.69096081
H 6.697244 7.757280 6.386467 1 0.10499056 -0.84042532 -0.27583894
H 6.963200 5.956478 6.714378 1 0.06307075 0.17373471 -1.12473811
6
energy=-373.255944 Lattice="12.718 0.0 0.0 0.0 12.718 0.0 0.0 0.0 12.718" Properties=species:S:1:pos:R:3:Z:I:1:force:R:3
C 7.149226 7.631416 5.512729 6 -0.37158484 2.07456240 1.29710705
H 7.409661 8.401919 4.800788 1 -0.14243510 0.55073480 -0.22493209
H 6.844906 8.048704 6.524870 1 0.30263294 -0.97564025 -1.04407329
C 7.282788 6.395278 5.093265 6 0.20621548 -1.45242030 1.90240327
H 7.221026 5.536734 5.816216 1 -0.21034519 0.51103797 -0.99557094
H 7.664609 6.286202 4.107957 1 0.21292760 -0.71165050 -0.93714052
6
energy=-373.117883 Lattice="12.718 0.0 0.0 0.0 12.718 0.0 0.0 0.0 12.718" Properties=species:S:1:pos:R:3:Z:I:1:force:R:3
C 6.233080 6.928131 6.364592 6 -0.72521925 1.47053785 0.82002257
H 6.241364 7.485585 5.427168 1 -0.03544680 0.92954959 0.52325535
H 5.926421 7.299736 7.397699 1 0.61115012 0.06688627 -1.53143961
C 6.427988 5.654154 6.189838 6 -0.51678748 -3.29828086 -1.87497164
H 6.253327 4.914444 6.949314 1 0.26538072 -0.29357391 0.79529728
H 6.472155 5.129864 5.163829 1 0.40248232 1.14212752 1.26615865
6
energy=-373.079181 Lattice="12.718 0.0 0.0 0.0 12.718 0.0 0.0 0.0 12.718" Properties=species:S:1:pos:R:3:Z:I:1:force:R:3
C 7.201329 6.320848 4.877534 6 0.89042097 -2.58545022 -1.57159770
H 7.493697 5.258254 4.730062 1 -0.04811103 0.24342451 0.03024391
H 7.242901 6.779235 3.849952 1 -0.26860642 0.67958882 1.56111633
C 6.893376 6.621619 6.125282 6 -1.67345048 2.87186566 0.38755757
H 6.492399 7.655144 6.346593 1 0.54382779 -0.75396523 -0.09842910
H 6.749182 5.967013 6.984785 1 0.55370340 -0.45676040 -0.31501076
6
energy=-372.782107 Lattice="12.718 0.0 0.0 0.0 12.718 0.0 0.0 0.0 12.718" Properties=species:S:1:pos:R:3:Z:I:1:force:R:3
C 6.743866 5.693485 5.590747 6 -1.39681090 2.41250073 4.10513320
H 6.583842 5.104903 6.571863 1 0.60142157 -0.33925782 -2.19225474
H 6.702279 5.484386 4.542680 1 0.37968485 -1.11583283 -0.35426227
C 6.560104 7.021913 5.891358 6 0.11914501 -0.46555615 -4.55897026
H 6.513240 7.665152 4.914061 1 0.16190300 -0.52519191 1.89555796
H 6.304095 7.540952 6.782393 1 0.13502106 0.03322279 1.10611303
6
energy=-373.234385 Lattice="12.718 0.0 0.0 0.0 12.718 0.0 0.0 0.0 12.718" Properties=species:S:1:pos:R:3:Z:I:1:force:R:3
C 6.804472 5.814622 5.939688 6 0.04550239 2.88767796 -1.66777091
H 6.416497 5.783399 6.946065 1 0.08843316 -0.39549148 0.30123529
H 6.990568 4.999431 5.285802 1 0.19144242 -1.48420790 0.17817655
C 6.924962 7.007874 5.272487 6 -0.38539270 -1.78841796 -0.28028901
H 7.175582 7.003945 4.163340 1 -0.12095506 0.20240458 1.42101322
H 6.602827 7.921980 5.744787 1 0.18070394 0.58723833 0.04299093
6
energy=-373.093263 Lattice="12.718 0.0 0.0 0.0 12.718 0.0 0.0 0.0 12.718" Properties=species:S:1:pos:R:3:Z:I:1:force:R:3
C 6.163335 6.103489 6.948437 6 0.34095783 2.16394635 0.55384636
H 5.922101 6.897261 7.781308 1 0.13858976 -1.54655977 -1.58484609
H 6.381507 5.077444 7.304535 1 -0.33286605 0.47867599 -0.30336571
C 6.422765 6.482685 5.670887 6 0.80957000 -0.87756596 0.31715969
H 6.867389 5.765556 4.984508 1 -0.23302387 -0.77495110 0.00967764
H 6.494404 7.423211 5.115456 1 -0.71892724 0.55509900 1.01297886
6
energy=-373.238066 Lattice="12.718 0.0 0.0 0.0 12.718 0.0 0.0 0.0 12.718" Properties=species:S:1:pos:R:3:Z:I:1:force:R:3
C 7.297386 6.842313 4.660565 6 0.25545419 1.80631131 -1.28406897
H 7.555097 5.908975 4.201689 1 0.24379012 -0.28716209 -0.82830204
H 7.267354 7.855234 4.132447 1 0.28178385 -1.63336593 0.17965031
C 7.010740 6.851423 5.932958 6 -1.63248815 0.64334189 1.87184517
H 6.615618 7.737464 6.433157 1 0.36516427 0.39076734 -0.08070750
H 6.820506 5.998276 6.556390 1 0.48774170 -0.90723908 0.14437372
6
energy=-373.169986 Lattice="12.718 0.0 0.0 0.0 12.718 0.0 0.0 0.0 12.718" Properties=species:S:1:pos:R:3:Z:I:1:force:R:3
C 6.843344 5.964416 6.121434 6 0.29202816 2.05156078 -3.15241333
H 6.393040 6.508797 6.974267 1 0.43619465 -1.06338075 0.05316634
H 7.032669 4.887260 5.961188 1 -0.32632362 0.41313132 0.79410686
C 7.059277 6.798782 5.017316 6 -0.84331524 -0.22557127 3.02225988
H 7.376671 6.469297 4.035954 1 0.21118542 -0.09359799 -0.12243396
H 6.863665 7.898153 5.202001 1 0.22931531 -1.09208868 -0.60435674
6
energy=-373.085627 Lattice="12.718 0.0 0.0 0.0 12.718 0.0 0.0 0.0 12.718" Properties=species:S:1:pos:R:3:Z:I:1:force:R:3
C 6.662756 5.906473 6.061297 6 -0.07448285 -3.45323673 -1.42091141
H 6.424363 5.995398 7.073420 1 -0.50513009 0.20116377 1.80771667
H 6.740884 4.759714 5.678518 1 -0.05069242 2.74268923 0.79486122
C 6.779147 6.923026 5.236705 6 1.52662085 -0.18771329 -1.32037555
H 7.209887 6.687855 4.261680 1 -0.46917267 0.13992622 -0.41134338
H 6.835143 7.968578 5.468384 1 -0.42685691 0.56693894 0.55589038
6
energy=-373.083011 Lattice="12.718 0.0 0.0 0.0 12.718 0.0 0.0 0.0 12.718" Properties=species:S:1:pos:R:3:Z:I:1:force:R:3
C 6.976414 7.150871 5.618303 6 0.45573865 0.87447858 -1.91398147
H 7.047672 7.929331 4.795800 1 -0.00778428 -0.87595490 0.51097215
H 6.776886 7.747442 6.523634 1 0.09639587 -1.28170253 0.40429752
C 7.173855 5.853758 5.234620 6 -1.21856493 2.47433581 2.01463869
H 7.008593 5.056116 5.952393 1 0.30866990 -0.41643056 -0.19350393
H 7.229868 5.740406 4.179057 1 0.36621020 -0.78208746 -0.82063398
6
energy=-373.125519 Lattice="12.718 0.0 0.0 0.0 12.718 0.0 0.0 0.0 12.718" Properties=species:S:1:pos:R:3:Z:I:1:force:R:3
C 6.409379 5.854274 6.438794 6 0.24552716 -3.06524824 -1.05299554
H 6.012222 6.004958 7.418920 1 0.01532276 0.62041792 0.67123787
H 6.536393 4.793474 6.146644 1 0.08211492 0.09645809 0.61170702
C 6.583778 6.699764 5.446932 6 -1.43307376 2.07339924 1.89330156
H 6.734453 6.418530 4.440158 1 0.53404936 -0.10244928 -1.04755919
H 6.245703 7.694251 5.779943 1 0.55931664 0.37503063 -1.08010218
6
energy=-373.267494 Lattice="12.718 0.0 0.0 0.0 12.718 0.0 0.0 0.0 12.718" Properties=species:S:1:pos:R:3:Z:I:1:force:R:3
C 6.516168 6.978370 5.943369 6 -1.21540041 -0.07505981 -1.69662642
H 6.284254 7.702256 5.118682 1 0.58839121 -0.62670839 0.40653130
H 6.228123 7.379759 6.897230 1 0.46214790 0.10231867 0.82275926
C 6.671909 5.654281 5.728482 6 -0.28761306 1.66279222 -0.05313651
H 6.702380 5.071655 6.631989 1 0.14794704 -0.92807480 0.04306241
H 6.670466 5.243277 4.709059 1 0.30597229 -0.13771713 0.47619847
6
energy=-373.220444 Lattice="12.718 0.0 0.0 0.0 12.718 0.0 0.0 0.0 12.718" Properties=species:S:1:pos:R:3:Z:I:1:force:R:3
C 6.264783 5.839774 6.572771 6 -0.02919387 -1.12271979 2.09712591
H 6.152363 6.002331 7.646802 1 -0.19583798 0.22471818 -0.09388236
H 6.425522 4.835121 6.274881 1 -0.11310599 -1.32470117 -0.04356583
C 6.372971 6.737935 5.645172 6 0.65929406 2.28374236 -0.25145355
H 6.649881 6.327634 4.690309 1 -0.07603375 0.64001848 -0.89336129
H 6.412225 7.818767 5.930576 1 -0.24476251 -0.69673500 -0.81085607
6
energy=-373.239214 Lattice="12.718 0.0 0.0 0.0 12.718 0.0 0.0 0.0 12.718" Properties=species:S:1:pos:R:3:Z:I:1:force:R:3
C 6.515094 6.163468 6.302590 6 0.68543911 -1.08820117 0.59561344
H 6.171154 6.920897 7.009552 1 -0.25961321 -0.20991324 0.21025674
H 6.718331 5.093315 6.785331 1 -0.45389465 2.18130594 -1.45351970
C 6.806244 6.605673 5.061502 6 0.40386455 -0.28418629 0.59322437
H 7.304522 5.970407 4.320954 1 -0.27049824 0.05222377 -0.03787443
H 6.690187 7.679433 4.805265 1 -0.10613161 -0.64526097 0.09334860
6
energy=-373.243378 Lattice="12.718 0.0 0.0 0.0 12.718 0.0 0.0 0.0 12.718" Properties=species:S:1:pos:R:3:Z:I:1:force:R:3
C 6.445936 6.639861 5.509412 6 0.60755314 3.54213423 -0.89846647
H 6.839019 6.323260 4.515234 1 -0.57673536 -0.24874104 0.77375194
H 6.366784 7.804853 5.599002 1 -0.04328815 -1.93273768 -0.30738897
C 6.291641 5.929862 6.605589 6 0.50841287 -1.89710782 0.51377826
H 6.094874 6.355256 7.607534 1 -0.13170177 -0.23147915 -0.59144414
H 6.501754 4.830924 6.510429 1 -0.36813853 0.76421777 0.51603517
6
energy=-373.090296 Lattice="12.718 0.0 0.0 0.0 12.718 0.0 0.0 0.0 12.718" Properties=species:S:1:pos:R:3:Z:I:1:force:R:3
C 6.653648 5.632454 5.695589 6 -0.52423545 5.22061070 -2.86684172
H 6.807475 4.960255 6.458793 1 0.33668209 -1.98299918 1.34180365
H 6.698723 5.499537 4.588223 1 0.07987446 -0.95859228 0.92581274
C 6.473904 6.966567 6.022159 6 -0.39999555 -1.63022198 0.70154605
H 6.266818 7.838504 5.333918 1 0.38055491 -1.16306814 0.57995593
H 6.389363 7.134369 7.121193 1 0.12509146 0.50607214 -0.68716586
6
energy=-373.280421 Lattice="12.718 0.0 0.0 0.0 12.718 0.0 0.0 0.0 12.718" Properties=species:S:1:pos:R:3:Z:I:1:force:R:3
C 6.663360 6.988366 5.444514 6 0.20849656 1.42090061 1.15056486
H 6.909405 7.182316 4.387488 1 -0.26312637 0.02172481 0.46383351
H 6.519811 7.831503 6.175818 1 0.16711720 -0.28884873 -1.07483708
C 6.644328 5.778730 5.981298 6 -0.18805730 -2.12746032 -2.67734409
H 6.405501 5.542463 6.999420 1 -0.01779822 -0.03153923 0.58491765
H 6.716797 4.907543 5.218437 1 0.09314856 0.99705961 1.55042877
6
energy=-373.197484 Lattice="12.718 0.0 0.0 0.0 12.718 0.0 0.0 0.0 12.718" Properties=species:S:1:pos:R:3:Z:I:1:force:R:3
C 7.143673 6.608403 4.922868 6 1.67370657 -1.31666338 -2.51385009
H 7.663276 5.804882 4.317249 1 -0.62095631 1.20042219 -0.14768581
H 7.017812 7.637468 4.543952 1 0.01246575 -0.58253166 0.08839716
C 6.859693 6.230807 6.131184 6 -0.97990725 1.07707342 3.15220044
H 6.485216 7.020985 6.790891 1 -0.30616667 -0.05198723 0.19892691
H 6.994707 5.309205 6.701217 1 0.21748360 -0.32405333 -0.78757060
6
energy=-373.130845 Lattice="12.718 0.0 0.0 0.0 12.718 0.0 0.0 0.0 12.718" Properties=species:S:1:pos:R:3:Z:I:1:force:R:3
C 6.733658 5.866361 5.355713 6 1.24825554 -0.53078046 -1.07829110
H 6.989620 4.881102 5.778154 1 -0.43339986 -0.04224737 -0.40206940
H 7.004051 5.957992 4.202804 1 -0.81920599 0.24734750 2.43756129
C 6.431179 6.829313 6.246375 6 0.52433521 -1.89634369 -0.34688526
H 6.419619 7.811891 5.871209 1 -0.49076789 1.62593955 0.10873409
H 6.332253 6.542839 7.317919 1 -0.03003256 0.59249932 -0.71860225
6
energy=-373.316720 Lattice="12.718 0.0 0.0 0.0 12.718 0.0 0.0 0.0 12.718" Properties=species:S:1:pos:R:3:Z:I:1:force:R:3
C 7.351364 7.068902 4.653233 6 0.52226136 -1.50311478 0.31707433
H 7.693765 6.269942 3.948686 1 -0.36117032 0.22159686 0.83155346
H 7.370151 8.026673 4.167926 1 -0.27841108 0.73101297 -0.00893819
C 7.066814 6.922986 5.967592 6 0.63556379 -1.18293867 -1.59292039
H 6.802635 7.790398 6.479560 1 -0.53916586 1.59505955 1.14104354
H 7.100597 6.012227 6.591529 1 0.02160757 0.13791973 -0.68834034
6
energy=-373.203962 Lattice="12.718 0.0 0.0 0.0 12.718 0.0 0.0 0.0 12.718" Properties=species:S:1:pos:R:3:Z:I:1:force:R:3
C 6.872352 6.756842 6.060096 6 -1.23254711 0.56759663 3.05918249
H 6.534140 7.823739 6.129313 1 0.42275085 -0.91515757 -0.25016029
H 6.833193 6.168973 6.989927 1 -0.00032036 0.47204922 0.15015356
C 7.165807 6.111709 4.973853 6 0.68211210 0.37956657 -0.86870233
H 7.544651 5.120041 4.914496 1 0.04976425 -0.92895926 0.00519620
H 7.227970 6.752557 4.149806 1 0.07846807 0.42657306 -2.09057936
6
energy=-373.310162 Lattice="12.718 0.0 0.0 0.0 12.718 0.0 0.0 0.0 12.718" Properties=species:S:1:pos:R:3:Z:I:1:force:R:3
C 6.476161 6.249229 5.702352 6 -0.09268165 -0.64342005 -0.29930388
H 6.780431 5.256009 5.472847 1 0.59647528 -0.76754940 -0.95925871
H 6.309286 6.972133 4.925334 1 0.10742180 0.41223349 -0.28572587
C 6.165855 6.394343 6.964287 6 -0.96279295 0.53337573 1.98960744
H 5.715730 7.285640 7.379174 1 -0.01175663 0.62247069 -0.03994314
H 6.202625 5.608787 7.729856 1 0.36385764 -0.15523509 -0.41687999
6
energy=-373.219658 Lattice="12.718 0.0 0.0 0.0 12.718 0.0 0.0 0.0 12.718" Properties=species:S:1:pos:R:3:Z:I:1:force:R:3
C 7.264606 6.336874 4.994812 6 -0.53773273 -1.64296129 3.05482961
H 7.128561 5.370955 5.527061 1 0.13811822 0.43713104 0.01679086
H 7.581975 6.154955 4.028163 1 0.54715737 0.35487111 -2.31382481
C 7.083658 7.487095 5.636764 6 -0.56134935 0.33507515 -1.59249873
H 7.064690 8.340787 4.941048 1 0.28449020 0.41381215 0.84759664
H 6.716812 7.558285 6.658646 1 0.13112584 0.10430459 -0.01033790
6
energy=-373.073137 Lattice="12.718 0.0 0.0 0.0 12.718 0.0 0.0 0.0 12.718" Properties=species:S:1:pos:R:3:Z:I:1:force:R:3
C 7.370990 7.903238 5.100640 6 0.71443655 -1.51829664 -2.00521559
H 7.766020 7.947983 4.055691 1 -0.22452226 0.38325765 0.53231335
H 7.101642 8.907121 5.465052 1 -0.11436686 -0.82037687 0.69105646
C 7.313886 6.611720 5.524935 6 0.32212346 -0.38185846 0.17616852
H 6.981366 6.343730 6.551114 1 0.05641570 0.09808868 -0.53758823
H 7.681759 5.678355 4.885736 1 -0.75610079 2.23208269 1.13344747
6
energy=-373.293645 Lattice="12.718 0.0 0.0 0.0 12.718 0.0 0.0 0.0 12.718" Properties=species:S:1:pos:R:3:Z:I:1:force:R:3
C 7.320967 7.940777 5.344426 6 -0.10231867 -1.92756462 -0.24321573
H 7.562196 8.586016 4.524813 1 0.19459151 0.57837418 -0.39914657
H 6.912575 8.332885 6.270594 1 0.11391589 0.39470576 0.03339763
C 7.397030 6.593114 5.250014 6 -0.38012759 -0.70173580 0.70052892
H 7.069463 6.020883 6.148769 1 0.20262261 0.28757758 -0.42746523
H 7.686224 5.867817 4.436899 1 -0.03192130 1.38240397 0.33762980
6
energy=-373.247395 Lattice="12.718 0.0 0.0 0.0 12.718 0.0 0.0 0.0 12.718" Properties=species:S:1:pos:R:3:Z:I:1:force:R:3
C 6.952827 7.121924 5.809690 6 0.57327980 -0.21990661 -1.58979290
H 6.848505 8.190413 5.795835 1 0.03508273 0.72698045 -0.37065924
H 6.842622 6.730874 6.808481 1 -0.10780180 -0.57794687 0.26382160
C 7.254474 6.336777 4.733809 6 -0.90880231 1.68105221 2.25099523
H 7.222138 5.332389 5.038089 1 0.37673425 -1.85415186 -0.39002789
H 7.392178 6.622707 3.702307 1 0.03210436 0.25027085 -0.15866855
6
energy=-373.127661 Lattice="12.718 0.0 0.0 0.0 12.718 0.0 0.0 0.0 12.718" Properties=species:S:1:pos:R:3:Z:I:1:force:R:3
C 6.407106 6.943242 6.002986 6 0.15094083 -1.99278275 -2.53366508
H 6.389525 7.505320 5.070780 1 0.11831300 0.42935705 0.01507439
H 6.201901 7.463967 6.895211 1 -0.09633005 0.54060774 1.23013593
C 6.544183 5.585362 5.911944 6 -0.63995369 3.93091513 2.33022897
H 6.445950 5.217031 6.911906 1 0.18992804 -1.68870742 0.23048722
H 6.660218 5.106726 4.994396 1 0.27652440 -1.20958920 -1.25924752
6
energy=-373.144020 Lattice="12.718 0.0 0.0 0.0 12.718 0.0 0.0 0.0 12.718" Properties=species:S:1:pos:R:3:Z:I:1:force:R:3
C 7.111793 6.771953 4.983524 6 -1.85757297 -0.07187421 3.27082454
H 7.475420 6.389390 4.064541 1 0.51774907 -0.68881240 -0.76154536
H 6.775016 7.833625 4.955185 1 0.42420559 -0.58052826 0.09762126
C 6.832729 6.022202 6.117180 6 0.68662079 1.58114370 -1.77908947
H 6.454788 6.328564 7.082140 1 -0.41253740 1.29089423 -0.01281490
H 7.031355 4.997117 6.279729 1 0.64423252 -1.52714638 -0.81230463
6
energy=-373.032764 Lattice="12.718 0.0 0.0 0.0 12.718 0.0 0.0 0.0 12.718" Properties=species:S:1:pos:R:3:Z:I:1:force:R:3
C 6.966358 5.882384 5.242683 6 1.65427107 -1.86857164 -3.07960529
H 7.284312 4.822888 5.493679 1 -0.65426086 1.37076766 0.06910565
H 7.108948 6.218871 4.184215 1 -0.30711438 -1.22630190 0.20409997
C 6.742833 6.938085 5.957179 6 -0.11605042 -0.39625613 4.33818124
H 6.581370 7.853212 5.463472 1 -0.25523822 1.42029691 -0.16217862
H 6.760904 6.827215 7.096630 1 -0.32226693 0.70046105 -1.36967854
6
energy=-373.269758 Lattice="12.718 0.0 0.0 0.0 12.718 0.0 0.0 0.0 12.718" Properties=species:S:1:pos:R:3:Z:I:1:force:R:3
C 6.299040 5.720203 6.624303 6 -0.10578606 0.67621347 0.13037971
H 6.024698 5.967803 7.643059 1 -0.02667419 -1.06261456 0.54338299
H 6.578827 4.755571 6.208149 1 -0.19775603 -0.20829087 0.41257853
C 6.320889 6.813223 5.882807 6 1.06857643 1.69428620 -1.76429739
H 6.683819 6.836173 4.818728 1 -0.49132171 -0.23654269 0.76720385
H 6.186970 7.846940 6.287804 1 -0.24797176 -0.86919444 -0.09547953
6
energy=-372.971979 Lattice="12.718 0.0 0.0 0.0 12.718 0.0 0.0 0.0 12.718" Properties=species:S:1:pos:R:3:Z:I:1:force:R:3
C 6.821941 6.576285 6.189212 6 1.18616901 1.39462340 -2.73590666
H 6.597124 7.680555 6.434889 1 0.09326940 -1.54779287 -0.59904433
H 6.863027 5.998137 7.136452 1 0.06074647 -0.38302471 -1.04286179
C 7.217830 6.283177 4.846303 6 -1.37975007 0.14618120 5.04129259
H 7.532521 5.343924 4.457650 1 0.23432537 -1.16928456 0.22071034
H 7.167907 7.003031 4.088198 1 -0.19670290 1.55574324 -0.89050222
6
energy=-373.170158 Lattice="12.718 0.0 0.0 0.0 12.718 0.0 0.0 0.0 12.718" Properties=species:S:1:pos:R:3:Z:I:1:force:R:3
C 7.029260 6.662709 4.959432 6 -1.11084746 -0.22919447 3.36790278
H 7.419278 6.023802 4.198216 1 0.35496624 -0.58360690 -0.40084041
H 6.840093 7.676453 4.686375 1 -0.08358457 0.89792705 -0.22451403
C 6.735971 6.181075 6.225685 6 0.07361948 -0.35223933 -1.70209414
H 6.240167 6.559102 7.161834 1 0.57380996 0.56707161 -1.28834729
H 6.904394 5.109899 6.313445 1 0.19177461 -0.29476022 0.24542483
6
energy=-373.191767 Lattice="12.718 0.0 0.0 0.0 12.718 0.0 0.0 0.0 12.718" Properties=species:S:1:pos:R:3:Z:I:1:force:R:3
C 6.416551 6.857980 6.170170 6 0.13664909 0.70040345 0.08366581
H 6.336899 7.651379 5.516760 1 -0.46167276 2.32667930 -1.12988649
H 6.448660 7.055276 7.197002 1 -0.19362683 0.13045015 1.65885329
C 6.653795 5.720835 5.601519 6 0.57064853 -2.45482215 -0.08047970
H 6.826378 4.865634 6.273327 1 0.01465684 -0.24225825 -0.73996248
H 6.728768 5.666380 4.511096 1 -0.06514357 -0.45602044 0.21355238
6
energy=-373.085756 Lattice="12.718 0.0 0.0 0.0 12.718 0.0 0.0 0.0 12.718" Properties=species:S:1:pos:R:3:Z:I:1:force:R:3
C 6.902280 6.484275 6.035432 6 0.59614669 -2.90377462 0.13095820
H 6.569110 7.266129 6.640480 1 -0.63800376 1.88011539 0.47501576
H 6.964666 5.591658 6.670605 1 0.09228827 -0.38049474 -0.44139342
C 7.225399 6.561966 4.743432 6 0.16029451 1.96583346 0.92145009
H 7.712086 5.828732 4.090789 1 -0.39722544 0.11952964 0.22740858
H 7.158895 7.648433 4.524201 1 0.18454363 -0.68604743 -1.31616408
6
energy=-373.192480 Lattice="12.718 0.0 0.0 0.0 12.718 0.0 0.0 0.0 12.718" Properties=species:S:1:pos:R:3:Z:I:1:force:R:3
C 7.222694 6.643021 4.799038 6 -0.02832278 0.76243908 -0.32199491
H 7.624834 6.036543 3.973623 1 -0.30202102 -0.06899252 0.52074492
H 7.057558 7.704733 4.637889 1 0.23757422 0.21860203 -0.84974146
C 6.901954 6.347212 6.044362 6 0.23303159 -1.12483941 2.05830839
H 6.636397 7.097978 6.790659 1 -0.29369578 0.58534445 -0.47606477
H 6.976641 5.416801 6.630582 1 0.15181758 -0.37285393 -0.93366284
6
energy=-373.155815 Lattice="12.718 0.0 0.0 0.0 12.718 0.0 0.0 0.0 12.718" Properties=species:S:1:pos:R:3:Z:I:1:force:R:3
C 6.959743 6.164605 5.022425 6 0.90183565 1.19237514 -3.10057677
H 7.266923 5.147219 4.704150 1 -0.19129330 0.58338270 0.46057284
H 6.976596 7.005311 4.253765 1 0.02208991 -1.49138025 0.16585787
C 6.680713 6.640639 6.203755 6 -1.51953385 1.43926704 0.66208988
H 6.253339 7.685323 6.288399 1 0.82222550 -1.05639094 0.20105424
H 6.586323 5.979830 7.014489 1 -0.03457776 -0.66724957 1.59636567
6
energy=-373.118759 Lattice="12.718 0.0 0.0 0.0 12.718 0.0 0.0 0.0 12.718" Properties=species:S:1:pos:R:3:Z:I:1:force:R:3
C 6.163012 6.338254 6.916965 6 0.39833821 1.22707734 -1.12893210
H 5.947970 7.249834 7.475895 1 -0.17628010 0.81210820 -0.81446847
H 6.199596 5.628326 7.725969 1 0.14829928 -1.46107155 -0.46998000
C 6.456093 6.222608 5.579391 6 -0.06370067 -2.10110392 3.64379212
H 6.759767 5.209931 5.283877 1 -0.13518459 0.21787595 -0.38032505
H 6.541844 6.990790 4.871783 1 -0.17175341 1.30579275 -0.84168619
6
energy=-373.184226 Lattice="12.718 0.0 0.0 0.0 12.718 0.0 0.0 0.0 12.718" Properties=species:S:1:pos:R:3:Z:I:1:force:R:3
C 7.068420 6.949526 5.961167 6 -1.02951724 0.90868507 0.98338698
H 6.726126 7.839341 6.571573 1 0.51654991 -0.61900896 -0.90464895
H 7.067495 6.049994 6.585566 1 0.08180999 -0.18588781 -0.35821509
C 7.303347 6.959828 4.641712 6 1.09482690 2.13926837 0.59513367
H 7.695274 6.034620 4.243538 1 -0.05399423 -0.09349823 -0.81051308
H 7.465072 7.999566 4.126856 1 -0.61283727 -2.15098284 0.49654414
6
energy=-373.250320 Lattice="12.718 0.0 0.0 0.0 12.718 0.0 0.0 0.0 12.718" Properties=species:S:1:pos:R:3:Z:I:1:force:R:3
C 6.279274 6.948435 6.005695 6 0.28650132 -2.13608740 0.91545222
H 6.410854 7.400533 5.050368 1 -0.09617527 -0.20314043 -1.25627481
H 6.198040 7.733343 6.731521 1 -0.19624113 0.11080383 1.01443771
C 6.349104 5.595180 6.272287 6 0.35713317 3.39358195 -0.35091007
H 6.419970 5.253509 7.304475 1 -0.31117878 -0.30840456 -0.14847257
H 6.551092 4.979377 5.417613 1 -0.03797985 -0.85324485 -0.16430749
6
energy=-373.168186 Lattice="12.718 0.0 0.0 0.0 12.718 0.0 0.0 0.0 12.718" Properties=species:S:1:pos:R:3:Z:I:1:force:R:3
C 7.165748 7.387053 5.899104 6 0.22024805 1.05285310 -1.09471840
H 7.113393 8.494932 6.141315 1 0.19088089 -1.23801174 -0.35248718
H 6.932565 6.753206 6.715038 1 -0.27033729 -0.86052313 0.87057615
C 7.471063 6.961360 4.643286 6 -0.72145721 1.98374275 2.70848994
H 7.454762 5.930980 4.371338 1 0.22382806 -0.57607870 -0.59267313
H 7.643198 7.855918 4.072543 1 0.35533802 -0.36891037 -1.52775882
6