6
energy=-372.969536 Lattice="12.718 0.0 0.0 0.0 12.718 0.0 0.0 0.0 12.718" Properties=species:S:1:pos:R:3:Z:I:1:force:R:3
C 7.283276 7.101233 5.962142 6 -0.00753231 2.52147547 -3.05203893
H 6.920933 7.860777 6.600073 1 -0.33708472 0.97746059 1.27292529
H 7.236027 6.142799 6.455293 1 0.36250935 -0.76506520 -0.82059593
C 7.529530 7.624843 4.684065 6 0.44880952 -1.05962590 2.09866497
H 7.904830 6.981817 3.903855 1 0.05701117 -0.42415828 -0.45529744
H 7.586706 8.720627 4.381753 1 -0.52103803 -1.24156346 0.94381922
6
energy=-373.110337 Lattice="12.718 0.0 0.0 0.0 12.718 0.0 0.0 0.0 12.718" Properties=species:S:1:pos:R:3:Z:I:1:force:R:3
C 6.872195 6.278615 6.160944 6 -0.24309129 -0.99392234 -0.91225274
H 6.438831 6.740623 7.109874 1 0.63103916 0.50111351 -1.77147438
H 6.923071 5.196479 6.364786 1 0.25725602 0.07883882 -0.06993508
C 7.179774 6.632875 4.857524 6 -0.51484424 0.27491386 3.22830875
H 7.599695 5.900232 4.177000 1 -0.11592290 -0.11424705 -0.12259903
H 7.135311 7.673734 4.564158 1 -0.01416627 0.24639619 -0.35075117
6
energy=-373.208002 Lattice="12.718 0.0 0.0 0.0 12.718 0.0 0.0 0.0 12.718" Properties=species:S:1:pos:R:3:Z:I:1:force:R:3
C 7.321282 8.007942 5.667483 6 1.10492158 -1.11728859 -2.81715821
H 7.480072 8.941952 5.133226 1 -0.09572070 0.49075504 0.58055911
H 7.055396 7.904640 6.691216 1 -0.36381650 0.35799860 0.86171972
C 7.558948 6.875608 4.952605 6 -0.62647030 1.26491013 0.32485243
H 7.297380 5.999302 5.459665 1 -0.08363650 -1.82669657 0.82901681
H 7.822044 6.683257 3.903040 1 0.06348418 0.82394968 0.22117005
6
energy=-373.245790 Lattice="12.718 0.0 0.0 0.0 12.718 0.0 0.0 0.0 12.718" Properties=species:S:1:pos:R:3:Z:I:1:force:R:3
C 7.024254 7.382722 5.702433 6 -0.35280394 2.11399236 1.09172358
H 7.074393 8.477194 5.447528 1 0.20111955 -1.00341538 -0.54216634
H 6.682721 7.388627 6.785119 1 0.47364382 -0.96614361 -1.11142904
C 7.295253 6.352609 4.901901 6 -0.60203195 -0.26641687 -0.51523607
H 7.115220 5.351157 5.303598 1 0.25252313 -0.09250219 -0.15577965
H 7.504048 6.407604 3.794493 1 0.02834643 0.21560207 1.23327834
6
energy=-373.315605 Lattice="12.718 0.0 0.0 0.0 12.718 0.0 0.0 0.0 12.718" Properties=species:S:1:pos:R:3:Z:I:1:force:R:3
C 6.456357 5.947412 5.797919 6 0.56095186 0.30777052 0.02510941
H 6.840867 4.940965 6.064189 1 -0.26434508 0.27795856 -1.02020675
H 6.486841 6.427504 4.769757 1 -0.08377586 -1.02777403 1.10094716
C 6.149401 6.679805 6.871138 6 -0.10669366 1.31778541 -0.22134797
H 5.881465 7.756317 6.800025 1 -0.02145947 -0.60035147 -0.04737878
H 6.236387 6.310506 7.887055 1 -0.08510100 -0.27406180 0.15633655
6
energy=-373.192549 Lattice="12.718 0.0 0.0 0.0 12.718 0.0 0.0 0.0 12.718" Properties=species:S:1:pos:R:3:Z:I:1:force:R:3
C 7.121430 7.529926 5.197675 6 1.05395250 -0.48061254 -1.80438452
H 7.463068 7.919811 4.162223 1 -0.78764465 -0.06868913 1.89844942
H 6.790735 8.087299 6.052505 1 0.03825084 1.16037568 0.02056627
C 7.193384 6.218208 5.413916 6 -1.39534897 -1.23677401 0.13726975
H 6.790887 5.787022 6.360210 1 0.51407136 0.30778338 -0.40285770
H 7.288327 5.463617 4.617516 1 0.57779517 0.31881856 0.14938480
6
energy=-373.214612 Lattice="12.718 0.0 0.0 0.0 12.718 0.0 0.0 0.0 12.718" Properties=species:S:1:pos:R:3:Z:I:1:force:R:3
C 7.248709 6.885756 4.804774 6 -1.30668441 1.15868030 -1.30853201
H 7.500054 6.319206 3.881638 1 0.18408855 0.48867707 0.48177623
H 6.938598 8.015113 4.654898 1 0.96351337 -2.15761681 0.40181897
C 6.924498 6.234332 5.918675 6 -0.14034634 0.86340945 1.56611816
H 6.582215 6.796635 6.811018 1 0.01956251 -0.00526151 -0.46422175
H 7.015866 5.185554 6.183636 1 0.28053995 -0.35011765 -0.66708091
6
energy=-373.181062 Lattice="12.718 0.0 0.0 0.0 12.718 0.0 0.0 0.0 12.718" Properties=species:S:1:pos:R:3:Z:I:1:force:R:3
C 6.596528 5.674828 5.710344 6 -0.69197794 -0.19659646 -0.33723744
H 6.653442 4.732762 6.345261 1 0.16563058 1.34174657 -0.58427384
H 6.571428 5.493485 4.627515 1 0.25954585 0.03096022 0.12265765
C 6.334181 6.889480 6.227202 6 -0.55081142 0.04083429 1.83892269
H 6.056481 7.917594 5.842682 1 0.62990221 -1.46753377 -0.43465610
H 6.242885 6.878008 7.343355 1 0.18953363 0.24748634 -0.61267684
6
energy=-373.142700 Lattice="12.718 0.0 0.0 0.0 12.718 0.0 0.0 0.0 12.718" Properties=species:S:1:pos:R:3:Z:I:1:force:R:3
C 6.311606 6.750291 6.442717 6 0.45745614 -1.97542368 -1.27703134
H 6.114674 7.854639 6.302534 1 0.29734521 -1.36568407 -0.11088045
H 6.251484 6.314883 7.450618 1 -0.16658189 0.57722850 0.02393544
C 6.619833 5.803669 5.473816 6 0.38655124 1.83605950 -0.69714844
H 6.870554 4.722733 5.566475 1 -0.44837243 0.69932308 0.89778410
H 6.815403 6.062233 4.383644 1 -0.52682404 0.22980794 1.16533843
6
energy=-373.372523 Lattice="12.718 0.0 0.0 0.0 12.718 0.0 0.0 0.0 12.718" Properties=species:S:1:pos:R:3:Z:I:1:force:R:3
C 7.577814 7.438036 4.673731 6 0.09936395 -0.76192794 0.19424853
H 7.782405 6.550400 4.110930 1 0.02299236 -0.86054062 -0.31232447
H 7.682031 8.308301 4.057593 1 -0.01481831 0.93364382 0.11712360
C 7.274264 7.373579 5.967758 6 -0.40622945 2.22086136 0.41190953
H 7.089801 8.334675 6.529635 1 0.14354531 -0.89524488 -0.44145924
H 7.117695 6.486162 6.553594 1 0.15523869 -0.62926664 0.02056267
6
energy=-373.353040 Lattice="12.718 0.0 0.0 0.0 12.718 0.0 0.0 0.0 12.718" Properties=species:S:1:pos:R:3:Z:I:1:force:R:3
C 7.089918 7.059187 5.157458 6 0.74000978 -2.39163981 -1.55572164
H 7.364343 7.038195 4.080218 1 -0.19758891 0.10293522 0.48384648
H 6.959137 8.028854 5.555713 1 -0.19994147 0.94792013 0.84333015
C 7.012909 5.882665 5.820830 6 -0.88549370 1.93803519 0.61431720
H 6.691089 5.952057 6.867438 1 0.21292246 -0.33688777 0.00858543
H 7.049278 4.896536 5.391435 1 0.33131105 -0.27197046 -0.38633424
6
energy=-373.319284 Lattice="12.718 0.0 0.0 0.0 12.718 0.0 0.0 0.0 12.718" Properties=species:S:1:pos:R:3:Z:I:1:force:R:3
C 6.631976 6.521843 5.311028 6 -0.59640843 0.10455501 0.68077924
H 6.944067 6.051555 4.357312 1 0.00277011 -0.34621009 0.89638902
H 6.396257 7.571919 5.181709 1 0.10456273 0.43040401 -0.09966323
C 6.376934 6.010910 6.540670 6 -0.09367924 -0.73316190 -0.33019879
H 5.958955 6.629614 7.382376 1 0.51087599 -0.39788210 -0.90173280
H 6.479398 4.916633 6.779365 1 0.06766583 0.94890487 -0.24580895
6
energy=-373.187941 Lattice="12.718 0.0 0.0 0.0 12.718 0.0 0.0 0.0 12.718" Properties=species:S:1:pos:R:3:Z:I:1:force:R:3
C 6.857567 6.511419 5.040714 6 -0.57352765 1.57686127 -0.35913606
H 7.160925 5.776675 4.390989 1 0.90672126 -2.51090001 -1.23090881
H 6.760771 7.401693 4.385441 1 -0.08787728 0.33952470 1.26202792
C 6.549905 6.286204 6.310920 6 -0.74281692 0.66248223 0.43932420
H 6.156367 7.136118 6.911573 1 0.26263838 -0.70318179 -0.02891156
H 6.544820 5.263492 6.737536 1 0.23431200 0.63718770 -0.08802949
6
energy=-373.202339 Lattice="12.718 0.0 0.0 0.0 12.718 0.0 0.0 0.0 12.718" Properties=species:S:1:pos:R:3:Z:I:1:force:R:3
C 6.248240 5.868200 6.695774 6 -0.37801671 -1.26940905 0.91146906
H 5.887797 6.126990 7.761595 1 0.65032296 -0.25983279 -1.74624669
H 6.372038 4.783758 6.429345 1 0.07523053 0.74063508 0.81249129
C 6.421639 6.710774 5.678286 6 -0.58672873 -1.51720289 -0.21918002
H 6.606888 6.283438 4.677876 1 0.19951363 0.46105158 0.33739377
H 6.065779 7.691246 5.777738 1 0.04483133 1.83156727 -0.09372963
6
energy=-373.119483 Lattice="12.718 0.0 0.0 0.0 12.718 0.0 0.0 0.0 12.718" Properties=species:S:1:pos:R:3:Z:I:1:force:R:3
C 6.798931 5.722144 5.620490 6 -0.35811533 2.30898085 -1.92231545
H 6.774777 5.355459 6.615491 1 0.14858827 -1.75196843 0.48394830
H 6.822092 5.270421 4.581309 1 0.07935201 -0.28683504 1.68616460
C 6.685450 7.068640 5.661939 6 0.12767902 0.54045296 -0.63445410
H 6.665106 7.715344 4.723907 1 0.00018512 -0.70470851 1.23702444
H 6.635514 7.572135 6.658296 1 0.00264670 -0.11221639 -0.85071334
6
energy=-373.164890 Lattice="12.718 0.0 0.0 0.0 12.718 0.0 0.0 0.0 12.718" Properties=species:S:1:pos:R:3:Z:I:1:force:R:3
C 6.856318 6.412062 6.150946 6 -0.91512620 2.47128082 1.65249186
H 6.480527 7.444478 6.561124 1 0.59455878 -2.24480144 0.13379722
H 6.934260 5.468522 6.698903 1 -0.20585449 0.44463867 0.36660203
C 7.206604 6.472036 4.893479 6 -0.16348063 -1.07186694 -0.68285772
H 7.441579 5.550745 4.416978 1 0.62821248 -0.73765877 -0.78961206
H 7.068602 7.320859 4.282399 1 0.06198060 1.13572496 -0.67109646
6
energy=-373.131012 Lattice="12.718 0.0 0.0 0.0 12.718 0.0 0.0 0.0 12.718" Properties=species:S:1:pos:R:3:Z:I:1:force:R:3
C 6.383139 6.927521 5.979616 6 -1.11196075 1.90514612 1.48632083
H 6.312437 7.580343 5.108418 1 0.57670708 -0.55369929 -0.45535452
H 6.122961 7.503607 6.855718 1 -0.00348539 0.25237093 0.67136025
C 6.494260 5.621556 6.039082 6 0.17812821 -0.56417654 -1.56147115
H 6.346311 4.921854 6.865422 1 0.26382777 0.38382741 -0.02033076
H 6.693730 5.295428 5.027282 1 0.09706127 -1.42402707 -0.12421677
6
energy=-373.071364 Lattice="12.718 0.0 0.0 0.0 12.718 0.0 0.0 0.0 12.718" Properties=species:S:1:pos:R:3:Z:I:1:force:R:3
C 6.334464 5.655277 6.410177 6 0.64205531 0.17758828 -3.77525992
H 6.266577 5.284614 7.368342 1 -0.49483795 0.07971968 2.66559928
H 6.576112 4.800727 5.767595 1 -0.18566618 0.14816918 -0.48140444
C 6.275715 6.920580 5.933106 6 0.86172795 -1.86223490 1.14120809
H 6.564312 7.249769 4.933409 1 -0.36530568 -0.19086804 0.05221709
H 6.255541 7.587059 6.754759 1 -0.45803773 1.65959326 0.40207300
6
energy=-373.210182 Lattice="12.718 0.0 0.0 0.0 12.718 0.0 0.0 0.0 12.718" Properties=species:S:1:pos:R:3:Z:I:1:force:R:3
C 6.640421 5.691171 5.980604 6 -1.30560712 1.57410144 2.27335304
H 6.324202 5.389833 6.988274 1 0.60878161 -0.20789389 -0.06003787
H 6.665047 4.975385 5.235615 1 0.38210991 -1.71027591 -1.48245389
C 6.573675 6.978863 5.648145 6 -0.24818465 0.99882801 -0.07555089
H 6.628013 7.158567 4.563009 1 0.20929155 0.64139917 0.36080934
H 6.376643 7.851614 6.363846 1 0.35308779 -1.30683456 -1.01251863
6
energy=-373.268754 Lattice="12.718 0.0 0.0 0.0 12.718 0.0 0.0 0.0 12.718" Properties=species:S:1:pos:R:3:Z:I:1:force:R:3
C 6.450422 5.765631 5.844952 6 0.12083319 -0.36179972 0.91201311
H 6.572619 4.826429 6.355349 1 -0.06371044 -0.81597051 -0.06871124
H 6.672413 5.761427 4.791456 1 -0.08270885 0.33804323 -0.46476785
C 6.163669 6.805590 6.631783 6 0.69365842 -1.56115182 -0.81983180
H 6.204159 7.740222 6.162982 1 -0.38780594 1.90164994 -0.06626817
H 6.094667 6.608369 7.686613 1 -0.28160182 0.49204316 0.50656014
6
energy=-373.263578 Lattice="12.718 0.0 0.0 0.0 12.718 0.0 0.0 0.0 12.718" Properties=species:S:1:pos:R:3:Z:I:1:force:R:3
C 6.954632 7.160051 5.676939 6 0.24023325 -0.47378575 -0.24818465
H 6.810724 8.207055 5.333054 1 0.25669038 -0.88735930 -0.51904491
H 6.906016 7.101201 6.746003 1 -0.16155847 -0.06458359 0.84288689
C 7.205528 6.007592 5.020714 6 -0.45799762 1.10515092 -0.85570591
H 7.249138 5.021288 5.435172 1 0.13795161 -0.36897105 1.15505915
H 7.291211 5.877600 3.944261 1 -0.01512530 0.69320847 -0.38165328
6
energy=-373.298866 Lattice="12.718 0.0 0.0 0.0 12.718 0.0 0.0 0.0 12.718" Properties=species:S:1:pos:R:3:Z:I:1:force:R:3
C 7.029159 5.863936 5.716270 6 -0.31870338 0.26634385 1.20866001
H 6.714162 5.791463 6.798058 1 0.29104292 0.12961146 -0.90953611
H 7.235872 4.829076 5.321504 1 -0.05941618 1.37850257 -0.35407150
C 7.094603 7.112546 5.182783 6 0.21720644 -1.58851146 -0.60981057
H 7.362683 7.325425 4.136172 1 0.02601393 -0.30442037 0.22413916
H 6.865951 8.002508 5.750632 1 -0.15334379 0.11792065 0.43353818
6
energy=-373.232477 Lattice="12.718 0.0 0.0 0.0 12.718 0.0 0.0 0.0 12.718" Properties=species:S:1:pos:R:3:Z:I:1:force:R:3
C 7.088065 7.257634 5.914788 6 -0.27052395 -1.31334615 -0.77866635
H 6.867379 8.278107 6.192499 1 0.29179831 0.43778668 -0.16515544
H 6.866216 6.520059 6.671609 1 0.04101581 -0.19711068 0.57822043
C 7.399441 6.801282 4.676031 6 -0.71114090 3.28674482 2.01827423
H 7.423435 5.769803 4.515200 1 0.35091110 -1.51778139 -0.81153124
H 7.493622 7.629983 3.974534 1 0.29628951 -0.70023428 -0.84117402
6
energy=-373.112180 Lattice="12.718 0.0 0.0 0.0 12.718 0.0 0.0 0.0 12.718" Properties=species:S:1:pos:R:3:Z:I:1:force:R:3
C 7.503002 7.453653 4.672088 6 -1.29441510 -0.44770960 0.45050902
H 7.743878 6.716410 3.832497 1 -0.05712430 0.78247827 1.35694232
H 7.282315 8.461903 4.287434 1 0.31816036 -0.06121595 0.31653902
C 7.183546 7.037816 5.952074 6 1.77602832 -0.51612567 -4.48373973
H 6.884851 7.645015 6.750977 1 -0.47394258 0.79779074 1.15020439
H 7.407013 5.984217 5.985329 1 -0.26659016 -0.55254075 1.19876948
6
energy=-373.018109 Lattice="12.718 0.0 0.0 0.0 12.718 0.0 0.0 0.0 12.718" Properties=species:S:1:pos:R:3:Z:I:1:force:R:3
C 7.115812 6.178364 5.543724 6 -1.49567143 4.57042093 2.36767557
H 6.787321 5.914123 6.589765 1 0.17839561 0.37473753 -0.98757069
H 7.333736 5.382237 4.938201 1 0.79964451 -1.96833617 -1.70561501
C 7.129611 7.482159 5.058573 6 1.19867743 -3.20810141 0.22446929
H 7.633462 7.572889 4.117149 1 -0.05010724 -0.02429026 -1.13184413
H 7.016625 8.467004 5.457110 1 -0.63086021 0.25390433 1.23339815
6
energy=-373.128955 Lattice="12.718 0.0 0.0 0.0 12.718 0.0 0.0 0.0 12.718" Properties=species:S:1:pos:R:3:Z:I:1:force:R:3
C 6.260500 6.896740 6.268202 6 0.95580366 0.20230174 -2.98462970
H 6.439865 7.693694 5.585215 1 -0.28775242 1.18222030 -0.41958222
H 6.104201 7.105390 7.254565 1 -0.65573925 0.56127325 2.69976926
C 6.495513 5.683259 5.812247 6 -0.20917070 -0.85979757 2.64254932
H 6.470734 4.979527 6.659187 1 0.00456628 -0.78556000 -0.87009176
H 6.796726 5.410496 4.837449 1 0.19412306 -0.30989477 -1.06389548
6
energy=-373.223646 Lattice="12.718 0.0 0.0 0.0 12.718 0.0 0.0 0.0 12.718" Properties=species:S:1:pos:R:3:Z:I:1:force:R:3
C 7.359139 6.474638 5.238796 6 -1.57730093 -1.06251480 1.20367412
H 6.870883 5.857949 6.023965 1 0.64594334 -0.06100975 -0.35710746
H 7.695763 5.970070 4.336471 1 0.21990353 0.03174543 0.01352813
C 7.221101 7.785495 5.329966 6 1.18770601 -0.84975432 -1.60181950
H 7.607773 8.311833 4.505871 1 0.50901451 1.17954173 -1.19560445
H 6.892278 8.390990 6.099885 1 -0.98670371 0.76529146 1.94609817
6
energy=-373.343463 Lattice="12.718 0.0 0.0 0.0 12.718 0.0 0.0 0.0 12.718" Properties=species:S:1:pos:R:3:Z:I:1:force:R:3
C 6.267362 6.793460 6.478761 6 -0.30911316 -1.13921652 -1.05690568
H 6.090405 7.755644 6.050836 1 0.12353800 0.96204887 0.01286015
H 5.972638 6.608580 7.487795 1 0.10853148 -0.01136788 0.89962964
C 6.541095 5.796822 5.628109 6 -0.28471028 -0.18962002 -0.37649153
H 6.563198 4.727835 5.837537 1 0.13529360 0.01618922 0.60344194
H 6.632179 5.967485 4.556049 1 0.22689076 0.35266819 -0.09049004
6
energy=-373.096914 Lattice="12.718 0.0 0.0 0.0 12.718 0.0 0.0 0.0 12.718" Properties=species:S:1:pos:R:3:Z:I:1:force:R:3
C 7.022670 7.329869 5.800296 6 -0.19527594 -2.28395268 -0.91742837
H 6.983716 8.394188 5.610658 1 0.01801830 0.17346783 0.52586091
H 6.814137 6.719220 6.669126 1 -0.44860589 1.20089475 1.21142703
C 7.259004 6.437497 4.821160 6 1.59626231 1.53589894 -1.11311774
H 7.358353 5.370966 4.992255 1 -0.25930417 -0.18110247 0.10544410
H 7.698801 6.813594 3.867171 1 -0.70901820 -0.44338757 0.18941588
6
energy=-372.997400 Lattice="12.718 0.0 0.0 0.0 12.718 0.0 0.0 0.0 12.718" Properties=species:S:1:pos:R:3:Z:I:1:force:R:3
C 6.279815 6.913491 5.998436 6 0.53947234 5.06767624 -0.13907570
H 6.429890 7.605271 5.085482 1 -0.32741582 -1.76815199 0.79991242
H 6.249044 7.610614 6.884129 1 -0.47660419 -0.77132379 -0.48814023
C 6.388071 5.634585 6.175989 6 1.17160318 -2.67502444 -1.21622060
H 6.354366 5.284340 7.232264 1 0.01745472 -0.43614168 -0.95630399
H 6.712803 4.995419 5.248601 1 -0.92531909 0.58247355 2.00640292
6
energy=-373.161788 Lattice="12.718 0.0 0.0 0.0 12.718 0.0 0.0 0.0 12.718" Properties=species:S:1:pos:R:3:Z:I:1:force:R:3
C 7.047273 6.552399 4.925289 6 1.48790463 -0.39926587 0.84033173
H 7.623012 5.768924 4.285897 1 -1.23466262 1.30266783 0.89410382
H 7.073945 7.613742 4.535586 1 -0.45809018 -1.15122718 0.33231789
C 6.769778 6.237126 6.236012 6 0.51668052 -1.00518893 -1.56330692
H 6.335952 6.947327 6.969364 1 0.26787263 -0.45992338 -0.41320640
H 6.997027 5.148128 6.538592 1 -0.58066504 1.70813418 -0.09223376
6
energy=-373.086152 Lattice="12.718 0.0 0.0 0.0 12.718 0.0 0.0 0.0 12.718" Properties=species:S:1:pos:R:3:Z:I:1:force:R:3
C 6.578113 6.049485 5.398278 6 -0.14972573 -0.26882137 -0.25113165
H 6.828695 4.958873 5.276188 1 -0.23929480 0.87306961 0.44911754
H 6.587216 6.525159 4.362655 1 -0.03789706 0.15968105 1.62042504
C 6.264337 6.542639 6.630232 6 -0.66169753 -0.63590883 0.86230131
H 5.926996 7.592906 6.968303 1 0.66547499 -1.42147859 -1.08926303
H 6.179552 5.786116 7.521170 1 0.42519803 1.28556638 -1.59427485
6
energy=-373.179608 Lattice="12.718 0.0 0.0 0.0 12.718 0.0 0.0 0.0 12.718" Properties=species:S:1:pos:R:3:Z:I:1:force:R:3
C 6.145807 6.500136 6.913593 6 -0.48441418 3.43162145 1.23428569
H 5.901210 7.650618 6.964944 1 0.15888041 -2.02024832 0.09893046
H 6.182771 6.064524 7.944687 1 0.02454377 -0.29921440 -1.21056777
C 6.464867 6.063687 5.702602 6 0.57487645 -1.18696759 0.41952155
H 6.837284 5.017230 5.630356 1 -0.29707524 0.61502117 -0.58971687
H 6.446771 6.765518 4.857842 1 0.02241284 -0.53737226 0.04276365
6
energy=-373.277171 Lattice="12.718 0.0 0.0 0.0 12.718 0.0 0.0 0.0 12.718" Properties=species:S:1:pos:R:3:Z:I:1:force:R:3
C 6.266087 6.953743 6.103259 6 -0.25503408 -1.49011836 3.04457090
H 6.204803 7.596432 5.291084 1 0.02782913 0.92699802 -1.79703065
H 6.116568 7.387713 7.106233 1 0.13841955 0.40667476 -0.42491161
C 6.394117 5.626104 6.148109 6 0.07474922 -1.03056985 -0.34658393
H 6.398709 5.004210 7.063085 1 -0.04802773 0.80287073 0.02446972
H 6.489059 4.946852 5.299333 1 0.06505307 0.37928941 -0.49881031
6
energy=-373.180112 Lattice="12.718 0.0 0.0 0.0 12.718 0.0 0.0 0.0 12.718" Properties=species:S:1:pos:R:3:Z:I:1:force:R:3
C 7.215426 7.165714 4.785204 6 -1.23126619 -0.71786743 1.49637025
H 7.509214 6.978901 3.733852 1 0.25593396 -0.58789653 0.77815213
H 6.896552 8.187521 4.902344 1 -0.06088274 0.67313329 0.28331109
C 6.986462 6.249503 5.796111 6 0.58914146 1.18814104 -2.09625225
H 6.529100 6.394656 6.808276 1 0.54857045 0.22340588 -1.01162492
H 7.302584 5.265718 5.482308 1 -0.10197054 -0.77368766 0.54529486
6
energy=-372.914713 Lattice="12.718 0.0 0.0 0.0 12.718 0.0 0.0 0.0 12.718" Properties=species:S:1:pos:R:3:Z:I:1:force:R:3
C 6.768958 5.794175 5.466178 6 -0.34981375 -3.01703745 -1.02200550
H 6.817524 4.663643 5.752826 1 0.05470334 2.22839676 1.14794028
H 6.803806 5.645858 4.401205 1 0.03906228 0.86752014 -0.99414603
C 6.500965 6.963145 6.025790 6 0.45356195 1.37629708 -1.68512536
H 6.422744 7.933696 5.384922 1 0.11013945 -1.74816731 1.07487050
H 6.516869 7.084762 7.071207 1 -0.30491094 0.28381502 1.47398879
6
energy=-373.242123 Lattice="12.718 0.0 0.0 0.0 12.718 0.0 0.0 0.0 12.718" Properties=species:S:1:pos:R:3:Z:I:1:force:R:3
C 6.523440 5.730725 5.750090 6 -0.51275753 -1.97115976 1.07370785
H 6.432895 4.768974 6.371343 1 0.57450878 1.06359518 -1.37653774
H 6.635516 5.787930 4.685301 1 0.28285189 -0.65492986 -0.63765718
C 6.245259 6.842666 6.377937 6 -0.78857179 1.69510741 0.94461626
H 6.083095 7.806290 5.914719 1 0.37375022 0.28070347 -0.61930206
H 6.002672 6.920230 7.426039 1 0.07120778 -0.40238822 0.61486073
6
energy=-373.205997 Lattice="12.718 0.0 0.0 0.0 12.718 0.0 0.0 0.0 12.718" Properties=species:S:1:pos:R:3:Z:I:1:force:R:3
C 6.776577 7.061943 5.788039 6 1.49241641 -1.53037260 0.40481688
H 6.878924 7.886608 5.036537 1 -0.40265407 -0.68259084 0.66932805
H 6.853907 7.318798 6.879440 1 -0.47504353 -0.00496635 -0.96118395
C 6.983981 5.755977 5.405883 6 -0.42752231 0.91325135 -1.38746030
H 7.033410 4.808147 6.006455 1 -0.09443052 1.21311213 -0.09053838
H 7.058714 5.569629 4.280643 1 -0.09330849 0.08906359 1.36495028
6
energy=-373.039228 Lattice="12.718 0.0 0.0 0.0 12.718 0.0 0.0 0.0 12.718" Properties=species:S:1:pos:R:3:Z:I:1:force:R:3
C 7.418123 7.088211 4.646670 6 -1.32782815 4.53466046 0.08412398
H 7.590116 6.469599 3.818462 1 0.38387626 -1.85925396 -0.43806847
H 7.261208 8.156232 4.246462 1 0.60103899 -1.17276892 0.25943684
C 7.110665 7.039979 5.941088 6 0.19106087 -2.24250750 0.97466940
H 6.897663 7.943846 6.556195 1 0.10585291 -0.65906369 -0.54353828
H 7.087468 6.021085 6.463362 1 0.04952051 1.39997953 -0.33519753
6
energy=-372.964289 Lattice="12.718 0.0 0.0 0.0 12.718 0.0 0.0 0.0 12.718" Properties=species:S:1:pos:R:3:Z:I:1:force:R:3
C 6.493436 6.788811 5.521866 6 -1.31515209 -1.21937689 4.59418925
H 6.735365 6.724754 4.493958 1 0.51838413 -0.94837882 -1.00167731
H 6.274718 7.814925 5.797244 1 -0.16641631 0.35527632 0.21764969
C 6.348265 5.768553 6.508145 6 1.47443050 2.59379912 -5.58653037
H 6.065020 5.836195 7.514748 1 -0.38652296 0.44070077 1.32582732
H 6.680341 4.855276 6.057222 1 -0.12237174 -1.22610341 0.45401806
6
energy=-373.302871 Lattice="12.718 0.0 0.0 0.0 12.718 0.0 0.0 0.0 12.718" Properties=species:S:1:pos:R:3:Z:I:1:force:R:3
C 7.286341 7.726503 5.867524 6 -0.26562446 2.89596155 0.99985131
H 7.274229 8.855828 5.759970 1 -0.13711857 -1.08433782 0.96123691
H 7.087819 7.236171 6.816790 1 -0.12432887 0.05633651 0.03613534
C 7.587860 7.141297 4.748829 6 0.30281960 -1.30493349 -1.18168397
H 7.604184 6.065219 4.690804 1 0.18954957 -0.51012832 -0.35923839
H 7.816891 7.738073 3.878819 1 0.03594302 -0.06376392 -0.46591457
6
energy=-373.233979 Lattice="12.718 0.0 0.0 0.0 12.718 0.0 0.0 0.0 12.718" Properties=species:S:1:pos:R:3:Z:I:1:force:R:3
C 7.070537 6.798511 5.952341 6 -0.80022866 0.97693557 0.69890964
H 6.644216 7.570684 6.666984 1 0.61329082 -1.16754238 -0.46925135
H 7.205140 5.730179 6.212456 1 -0.16732237 0.70144321 0.36512519
C 7.321401 7.133504 4.692622 6 0.35116255 0.63428955 -2.02545893
H 7.655805 6.310402 4.045869 1 0.07160116 0.22232191 -0.10997027
H 7.245865 8.130065 4.104717 1 -0.07104632 -1.37397691 1.52906700
6
energy=-373.220781 Lattice="12.718 0.0 0.0 0.0 12.718 0.0 0.0 0.0 12.718" Properties=species:S:1:pos:R:3:Z:I:1:force:R:3
C 7.301374 7.393381 4.757797 6 0.94795613 -2.85150046 0.67705576
H 7.750981 6.763381 3.990238 1 0.03025574 0.91738363 -0.86606078
H 7.201470 8.435759 4.755096 1 -0.31519022 1.48518183 -0.40143896
C 7.128757 6.639986 5.848319 6 -0.51553998 -0.01490624 -0.34188652
H 6.662277 6.992277 6.730608 1 -0.33149051 0.66047831 1.16657770
H 7.305691 5.569873 5.863742 1 0.18167736 -0.21234653 -0.23800925
6
energy=-373.111048 Lattice="12.718 0.0 0.0 0.0 12.718 0.0 0.0 0.0 12.718" Properties=species:S:1:pos:R:3:Z:I:1:force:R:3
C 7.220621 6.617161 4.706042 6 1.11712404 -0.14327431 0.48723365
H 7.711533 5.724035 4.319740 1 -0.02949983 -0.01851144 -0.64403301
H 7.296400 7.544861 4.047551 1 -0.59970407 -1.08053567 1.15502727
C 6.922815 6.501689 6.015009 6 -1.23562267 1.78508272 -0.03253579
H 6.426296 7.286545 6.596964 1 0.18133438 0.65202349 -0.40856401
H 6.934163 5.677645 6.707940 1 0.56679753 -1.19057537 -0.55462232
6
energy=-373.026170 Lattice="12.718 0.0 0.0 0.0 12.718 0.0 0.0 0.0 12.718" Properties=species:S:1:pos:R:3:Z:I:1:force:R:3
C 6.753188 5.861811 5.261711 6 0.91903685 1.28074196 3.21170455
H 7.178991 4.898218 5.754821 1 -1.02477458 1.30251305 -1.45527937
H 6.910094 6.184324 4.245886 1 -0.09097855 -0.62190145 -0.67525908
C 6.490448 6.868008 6.176565 6 0.24000237 -0.10362736 -2.81286086
H 6.309100 7.972379 5.977190 1 0.03871518 -1.44652424 -0.25312529
H 6.528569 6.630981 7.189604 1 -0.07942092 -0.41532190 1.98861756
6
energy=-373.176433 Lattice="12.718 0.0 0.0 0.0 12.718 0.0 0.0 0.0 12.718" Properties=species:S:1:pos:R:3:Z:I:1:force:R:3
C 6.776849 6.073525 5.157155 6 1.77987212 -3.57495592 0.78232143
H 7.200587 4.985844 5.304439 1 -0.87899858 1.70945470 -0.53386476
H 6.811676 6.375154 4.121714 1 -0.24236110 0.72229024 -0.09698774
C 6.502471 6.690180 6.295061 6 -1.20966736 2.24703418 -1.69472329
H 6.100587 7.718626 6.259841 1 0.22765746 -0.17946056 0.13251064
H 6.441494 6.233236 7.234118 1 0.32584848 -0.91734867 1.40947616
6
energy=-373.296561 Lattice="12.718 0.0 0.0 0.0 12.718 0.0 0.0 0.0 12.718" Properties=species:S:1:pos:R:3:Z:I:1:force:R:3
C 6.967625 7.031120 5.430846 6 0.63624461 2.37639779 -1.66308276
H 7.259027 7.318840 4.411256 1 -0.25088174 0.49610037 0.14767296
H 6.801903 7.840782 6.161261 1 -0.03614151 -0.46546514 -0.21984439
C 6.965023 5.757296 5.677372 6 -0.10914289 -1.35235598 1.13531821
H 6.767562 5.541688 6.712170 1 -0.17599317 -1.05945981 0.46738009
H 7.189740 4.980958 4.945868 1 -0.07081903 0.01665870 0.13250652
6
energy=-372.893884 Lattice="12.718 0.0 0.0 0.0 12.718 0.0 0.0 0.0 12.718" Properties=species:S:1:pos:R:3:Z:I:1:force:R:3
C 7.165805 6.051562 4.989349 6 1.34281615 2.32063978 -0.20063566
H 7.258087 5.077853 5.542103 1 -0.52959415 1.00656190 -0.36141766
H 7.569336 6.046638 3.902222 1 -0.86530847 -0.14448633 1.64472661
C 7.002955 7.302058 5.579420 6 -0.64081861 -2.03868058 1.05960534
H 7.039017 8.298742 5.199533 1 0.39749592 0.38397962 -1.83260548
H 6.680421 7.575536 6.623161 1 0.29659959 -1.53625889 -0.30229716
6
energy=-373.223049 Lattice="12.718 0.0 0.0 0.0 12.718 0.0 0.0 0.0 12.718" Properties=species:S:1:pos:R:3:Z:I:1:force:R:3
C 6.166333 6.608739 6.819172 6 -0.88803704 -0.11367215 1.81149980
H 5.900541 7.682917 6.880892 1 0.42973243 -0.30083214 -0.71004458
H 5.940019 6.204207 7.882341 1 0.79902282 -0.13384401 -1.80299664
C 6.500845 5.939334 5.698682 6 -1.02921899 0.41004548 0.86928237
H 6.576619 4.844212 5.665581 1 0.25612628 0.32178613 0.00920764
H 6.438135 6.500783 4.766242 1 0.43523871 -0.18399650 -0.18647916
6
energy=-373.206510 Lattice="12.718 0.0 0.0 0.0 12.718 0.0 0.0 0.0 12.718" Properties=species:S:1:pos:R:3:Z:I:1:force:R:3
C 6.152197 6.715797 6.767187 6 0.26776824 -0.12095866 -0.35838581
H 6.052866 7.756320 6.373218 1 -0.10816227 -0.41914874 0.97913798
H 5.999910 6.481070 7.906267 1 0.34907481 0.35609136 -2.32122496
C 6.488994 5.842683 5.777142 6 -0.76813305 -0.10354765 0.48491914
H 6.558124 4.762017 5.957905 1 0.18804342 0.15003169 0.09352446
H 6.544023 6.108945 4.686043 1 0.07249385 0.13549826 1.12204616
6
energy=-373.264889 Lattice="12.718 0.0 0.0 0.0 12.718 0.0 0.0 0.0 12.718" Properties=species:S:1:pos:R:3:Z:I:1:force:R:3
C 6.331340 6.857515 5.999605 6 -0.04472849 3.72974107 -1.25920433
H 6.502730 7.113089 4.887263 1 -0.20375133 -1.03988496 1.61101840
H 6.148667 7.801311 6.594713 1 0.25345747 -0.74563845 -0.61060607
C 6.299122 5.730450 6.657642 6 -0.29426348 -1.06060190 0.26463510
H 6.077587 5.752014 7.728555 1 0.12215217 -0.29960829 -0.12232803
H 6.388171 4.794678 6.127716 1 0.16871540 -0.57540456 0.12222930
6
energy=-373.026822 Lattice="12.718 0.0 0.0 0.0 12.718 0.0 0.0 0.0 12.718" Properties=species:S:1:pos:R:3:Z:I:1:force:R:3
C 6.965145 6.972220 5.907399 6 -0.03029996 1.70442510 2.06681412
H 6.916872 8.060996 5.975483 1 -0.49832334 0.20996980 0.71867630
H 6.863182 6.447442 6.920119 1 0.25830863 0.13342749 -1.84819306
C 7.283978 6.635597 4.677375 6 0.23565926 -1.72903572 -1.74359074
H 7.471058 5.529914 4.500267 1 -0.14549163 1.27288364 -0.58112989
H 7.299193 7.429372 3.828827 1 0.18042472 -1.60262425 1.38686998
6
energy=-373.086475 Lattice="12.718 0.0 0.0 0.0 12.718 0.0 0.0 0.0 12.718" Properties=species:S:1:pos:R:3:Z:I:1:force:R:3
C 7.119632 6.268026 5.572452 6 0.31404094 -0.26377635 0.53406273
H 6.792455 5.942616 6.636648 1 0.42396184 1.13795565 -1.62141955
H 7.461238 5.391065 4.994626 1 -0.13149042 0.35648422 -0.00094257
C 7.218510 7.516685 5.057620 6 -1.14233064 0.78419474 -1.13166312
H 7.409990 7.860815 3.958737 1 0.22834035 -1.45390794 1.68524980
H 6.805625 8.424490 5.537792 1 0.30709998 -0.55288733 0.54413684
6
energy=-373.185163 Lattice="12.718 0.0 0.0 0.0 12.718 0.0 0.0 0.0 12.718" Properties=species:S:1:pos:R:3:Z:I:1:force:R:3
C 7.514738 7.891634 4.856691 6 -0.12437772 2.45686978 0.86474951
H 7.867235 7.727747 3.822106 1 -0.23034530 0.28933622 0.57656773
H 7.308321 8.904820 5.343900 1 0.41894408 -0.67985158 -1.59780343
C 7.355502 6.955216 5.759429 6 -0.67937079 -3.22586466 0.77572655
H 6.943949 7.025225 6.793187 1 0.44658088 0.64068543 -0.68973800
H 7.467615 5.879777 5.486116 1 0.17356296 0.51497742 0.06832454
6
energy=-373.056574 Lattice="12.718 0.0 0.0 0.0 12.718 0.0 0.0 0.0 12.718" Properties=species:S:1:pos:R:3:Z:I:1:force:R:3
C 6.499338 6.310570 5.448270 6 -0.79873022 1.07074182 0.88282644
H 6.687943 5.637408 4.615568 1 0.14756703 -0.88922438 0.70738606
H 6.333262 7.286213 5.070728 1 0.32505144 1.39236032 -0.76410310
C 6.211968 6.246682 6.772223 6 0.17199561 -1.04684391 -2.42691126
H 5.906449 7.147404 7.288350 1 0.04064866 -0.04597033 0.36554840
H 6.099926 5.248866 7.139666 1 0.11253829 -0.47769074 1.23468370
6
energy=-373.290399 Lattice="12.718 0.0 0.0 0.0 12.718 0.0 0.0 0.0 12.718" Properties=species:S:1:pos:R:3:Z:I:1:force:R:3
C 6.693328 5.744293 5.867997 6 -0.59268495 2.33754685 0.46213813
H 6.551353 5.353636 6.859006 1 -0.00008073 0.11020939 0.59840669
H 6.692679 5.062710 5.099782 1 0.30353180 -2.04559531 -1.79045787
C 6.661873 7.039073 5.495637 6 0.59792435 0.13511568 1.80678645
H 6.867448 7.321199 4.470419 1 -0.24802370 0.13217485 -0.27017428
H 6.624833 7.860109 6.265631 1 -0.05910919 -0.66118382 -0.80858784
6
energy=-373.160684 Lattice="12.718 0.0 0.0 0.0 12.718 0.0 0.0 0.0 12.718" Properties=species:S:1:pos:R:3:Z:I:1:force:R:3
C 6.282943 6.918178 6.072781 6 0.35931398 -0.83271457 -1.50791400
H 6.488532 7.040691 5.016658 1 -0.14220216 0.92468711 -0.28785577
H 6.109369 7.710262 6.761325 1 -0.19655995 0.81167574 0.31627420
C 6.325613 5.663786 6.460975 6 0.80187571 -2.12330336 1.58688498
H 6.284075 5.408042 7.508230 1 -0.49991691 0.25693155 0.83019746
H 6.623576 4.703691 5.990618 1 -0.32176916 0.97335402 -0.93923700
6
energy=-373.166596 Lattice="12.718 0.0 0.0 0.0 12.718 0.0 0.0 0.0 12.718" Properties=species:S:1:pos:R:3:Z:I:1:force:R:3
C 6.178730 6.746703 6.546099 6 0.71352586 -2.36453523 0.75530169
H 6.090447 7.764077 6.251651 1 -0.28874692 1.06937502 0.50972568
H 6.162435 6.244586 7.555221 1 -0.45517300 1.60298215 -0.45751014
C 6.520523 5.843406 5.622136 6 -0.45039795 1.06160617 0.40813824
H 6.606310 4.838484 5.968144 1 0.31823544 -0.99030120 -0.40527300
H 6.651929 6.173822 4.611506 1 0.16396399 -0.37218339 -0.82340100
6