6
Step 1
 C      6.441049      5.745164      6.024902
 H      6.585581      4.819364      6.545616
 H      6.455384      5.645467      4.972406
 C      6.190274      6.908766      6.668064
 H      5.988060      7.762999      6.003966
 H      6.115181      7.009896      7.741632
6
Step 21
 C      6.453787      5.775051      6.001782
 H      6.597135      4.816207      6.463548
 H      6.402201      5.846296      4.934904
 C      6.184376      6.868697      6.684778
 H      5.941759      7.818553      6.174491
 H      6.119390      6.866226      7.758566
6
Step 41
 C      6.447392      5.783950      5.943168
 H      6.732242      4.821948      6.373054
 H      6.526462      5.831792      4.851887
 C      6.159990      6.860213      6.734485
 H      5.975319      7.897608      6.401776
 H      6.191382      6.772464      7.808100
6
Step 61
 C      6.447804      5.852813      5.914771
 H      6.716899      4.871484      6.334860
 H      6.509875      5.932542      4.811044
 C      6.165542      6.800508      6.770717
 H      5.933553      7.799186      6.370801
 H      6.193000      6.591694      7.819614
6
Step 81
 C      6.481389      5.851090      5.876481
 H      6.680948      4.777056      6.111673
 H      6.368258      6.192466      4.814325
 C      6.163222      6.784937      6.805442
 H      5.824450      7.815679      6.589932
 H      6.107426      6.593468      7.863953
6
Step 101
 C      6.465425      5.912178      5.857121
 H      6.779226      4.842315      5.916925
 H      6.443642      6.211818      4.761974
 C      6.153091      6.732899      6.846037
 H      5.888390      7.765564      6.562284
 H      6.182010      6.426729      7.878899
6
Step 121
 C      6.456357      5.947412      5.797919
 H      6.840867      4.940965      6.064189
 H      6.486841      6.427504      4.769757
 C      6.149401      6.679805      6.871138
 H      5.881465      7.756317      6.800025
 H      6.236387      6.310506      7.887055
6
Step 141
 C      6.475765      5.992088      5.791148
 H      6.796015      4.932898      5.704544
 H      6.434160      6.395347      4.726161
 C      6.150654      6.660528      6.898704
 H      5.762089      7.685463      6.997553
 H      6.206781      6.095089      7.835550
6
Step 161
 C      6.486467      6.053204      5.748879
 H      6.764186      4.990348      5.740441
 H      6.310678      6.675868      4.824976
 C      6.155477      6.582536      6.932260
 H      5.763603      7.606954      6.915459
 H      6.175059      6.013734      7.871734
6
Step 181
 C      6.468386      6.101816      5.733341
 H      6.900807      5.129736      5.478183
 H      6.423496      6.780324      4.848229
 C      6.142218      6.518354      6.947703
 H      5.825348      7.551070      7.113885
 H      6.237163      5.986688      7.907874
6
Step 201
 C      6.474960      6.145884      5.704778
 H      6.894721      5.193639      5.409470
 H      6.399318      6.909095      4.917463
 C      6.136803      6.487622      6.980582
 H      5.771146      7.475994      7.254679
 H      6.306103      5.687334      7.713560
6
Step 221
 C      6.476161      6.249229      5.702352
 H      6.780431      5.256009      5.472847
 H      6.309286      6.972133      4.925334
 C      6.165855      6.394343      6.964287
 H      5.715730      7.285640      7.379174
 H      6.202625      5.608787      7.729856
6
Step 241
 C      6.475379      6.287752      5.673437
 H      6.855512      5.456373      5.128505
 H      6.342354      7.114198      5.002336
 C      6.144610      6.341820      7.018067
 H      5.760796      7.260034      7.435892
 H      6.309185      5.434586      7.625453
6
Step 261
 C      6.447053      6.349233      5.695728
 H      6.910226      5.568353      5.161640
 H      6.332168      7.324024      5.323736
 C      6.160740      6.267843      6.958053
 H      5.822391      7.104477      7.537811
 H      6.344181      5.389906      7.600122
6
Step 281
 C      6.447635      6.456286      5.676970
 H      6.841493      5.679438      5.046767
 H      6.320349      7.368302      5.151190
 C      6.176437      6.175103      7.006842
 H      5.748276      6.977825      7.584607
 H      6.301198      5.162074      7.454327
6
Step 301
 C      6.450808      6.502011      5.724179
 H      6.770222      5.776343      4.986642
 H      6.217557      7.479286      5.356020
 C      6.184345      6.141003      6.951518
 H      5.754264      6.697003      7.767368
 H      6.333724      5.065879      7.193138
6
Step 321
 C      6.425344      6.589249      5.721882
 H      6.848271      5.936632      4.930944
 H      6.280717      7.649549      5.598152
 C      6.180238      6.034439      6.939948
 H      5.862769      6.659145      7.771417
 H      6.433192      4.971669      7.136759
6
Step 341
 C      6.402670      6.649280      5.777968
 H      6.803848      6.292756      4.788707
 H      6.305564      7.732039      5.661336
 C      6.209210      5.953693      6.892474
 H      5.870022      6.527328      7.760807
 H      6.368378      4.878836      7.097903
6
Step 361
 C      6.412710      6.719311      5.804353
 H      6.667283      6.226379      4.811415
 H      6.105736      7.738692      6.049592
 C      6.231400      5.914063      6.856838
 H      5.852202      6.244354      7.828975
 H      6.335779      4.822343      6.698564
6
Step 381
 C      6.375510      6.787261      5.889194
 H      6.634112      6.569813      4.781099
 H      6.239729      7.890301      5.860981
 C      6.240889      5.824096      6.801535
 H      5.978546      6.013449      7.848486
 H      6.436016      4.783459      6.514845
6
Step 401
 C      6.333768      6.852539      5.923391
 H      6.679617      6.592221      4.854788
 H      6.278538      7.884402      6.393389
 C      6.261854      5.770706      6.726872
 H      6.094371      5.847226      7.809571
 H      6.480814      4.753517      6.397239
6
Step 421
 C      6.331340      6.857515      5.999605
 H      6.502730      7.113089      4.887263
 H      6.148667      7.801311      6.594713
 C      6.299122      5.730450      6.657642
 H      6.077587      5.752014      7.728555
 H      6.388171      4.794678      6.127716
6
Step 441
 C      6.320611      6.953788      6.085009
 H      6.355934      7.154620      4.963653
 H      6.096909      7.851128      6.732605
 C      6.320807      5.653111      6.568664
 H      6.135774      5.463457      7.641053
 H      6.397696      4.732547      6.008742
6
Step 461
 C      6.275548      6.930328      6.187982
 H      6.411011      7.177315      5.117945
 H      6.223234      7.716023      6.958373
 C      6.324391      5.676482      6.472124
 H      6.324630      5.285482      7.493900
 H      6.521541      4.992824      5.662346
6
Step 481
 C      6.247336      6.985699      6.262590
 H      6.316483      7.567460      5.367949
 H      6.201074      7.673556      7.121020
 C      6.360224      5.604020      6.387769
 H      6.391364      5.058481      7.347968
 H      6.481047      5.051004      5.472755
6
Step 501
 C      6.248490      6.965396      6.379907
 H      6.119308      7.535028      5.532504
 H      6.075735      7.354028      7.368248
 C      6.396041      5.656793      6.253592
 H      6.359491      5.035936      7.167201
 H      6.395501      5.007225      5.402555
6
Step 521
 C      6.214260      6.944177      6.478930
 H      6.058694      7.699847      5.813025
 H      6.131310      7.246617      7.505345
 C      6.410887      5.643523      6.153411
 H      6.513349      4.960212      7.022213
 H      6.478987      5.406428      5.101895
6
Step 541
 C      6.165204      6.917822      6.583491
 H      6.107862      7.744572      5.989047
 H      6.223901      7.118300      7.636280
 C      6.425956      5.686119      6.074381
 H      6.695752      4.690894      6.468399
 H      6.561670      5.544557      5.000152
6
Step 561
 C      6.168760      6.819893      6.700078
 H      5.990502      7.683678      6.131433
 H      6.095281      6.853386      7.778052
 C      6.464371      5.767894      5.938051
 H      6.612659      4.838163      6.519502
 H      6.393880      5.897306      4.854689
6
Step 581
 C      6.164513      6.774762      6.773697
 H      5.801355      7.799516      6.648329
 H      6.073229      6.452588      7.829443
 C      6.476806      5.837298      5.855422
 H      6.676866      4.754263      6.105647
 H      6.446442      5.956514      4.759795
6
Step 601
 C      6.138191      6.664248      6.853200
 H      5.882978      7.766748      6.822834
 H      6.258512      6.127164      7.818582
 C      6.459528      5.931382      5.775925
 H      6.815127      4.885663      5.901489
 H      6.564201      6.359630      4.751495
6
Step 621
 C      6.145807      6.500136      6.913593
 H      5.901210      7.650618      6.964944
 H      6.182771      6.064524      7.944687
 C      6.464867      6.063687      5.702602
 H      6.837284      5.017230      5.630356
 H      6.446771      6.765518      4.857842
6
Step 641
 C      6.160346      6.423020      6.967386
 H      5.699949      7.485817      7.274564
 H      6.134314      5.569379      7.716060
 C      6.490474      6.155709      5.678467
 H      6.737123      5.297746      5.078497
 H      6.318597      6.945804      4.918210
6
Step 661
 C      6.173058      6.266349      6.942611
 H      5.753199      7.176564      7.595502
 H      6.244769      5.302287      7.507189
 C      6.457370      6.324326      5.652302
 H      6.768077      5.372700      5.291607
 H      6.368175      7.281995      5.138384
6
Step 681
 C      6.163335      6.103489      6.948437
 H      5.922101      6.897261      7.781308
 H      6.381507      5.077444      7.304535
 C      6.422765      6.482685      5.670887
 H      6.867389      5.765556      4.984508
 H      6.494404      7.423211      5.115456
6
Step 701
 C      6.199461      6.005145      6.893584
 H      5.853066      6.545001      7.833470
 H      6.312747      4.940230      6.971212
 C      6.441824      6.574827      5.707034
 H      6.659259      6.063570      4.794647
 H      6.189189      7.664595      5.757095
6
Step 721
 C      6.254123      5.837887      6.802169
 H      5.893546      6.274792      7.738974
 H      6.259477      4.791552      6.780302
 C      6.401544      6.734197      5.802777
 H      6.547886      6.400963      4.788127
 H      6.149621      7.815593      5.943293
6
Step 741
 C      6.268546      5.739854      6.717859
 H      6.139183      5.804476      7.765824
 H      6.453651      4.792216      6.339513
 C      6.327836      6.829632      5.891267
 H      6.645030      6.770001      4.861065
 H      6.327732      7.921590      6.179472
6
Step 761
 C      6.302841      5.698951      6.584104
 H      6.260852      5.424234      7.557572
 H      6.520437      4.928413      5.925418
 C      6.301070      6.895855      6.017523
 H      6.514164      6.888817      4.958105
 H      6.189269      7.723917      6.738256
6
Step 781
 C      6.373633      5.590698      6.413954
 H      6.208046      5.308496      7.375964
 H      6.435094      4.826689      5.678208
 C      6.282400      6.964339      6.189166
 H      6.219928      7.467326      5.209838
 H      6.008644      7.815936      6.840804
6
Step 801
 C      6.400456      5.642815      6.267841
 H      6.345194      5.073400      7.147649
 H      6.505708      5.014684      5.365191
 C      6.225816      6.953238      6.316173
 H      6.261448      7.551397      5.393524
 H      6.121125      7.266291      7.368580
6
Step 821
 C      6.410588      5.637317      6.106024
 H      6.588190      4.841957      6.815670
 H      6.655036      5.479071      4.995044
 C      6.179472      6.917705      6.484244
 H      6.247047      7.797143      5.799400
 H      6.181597      7.255218      7.532152
6
Step 841
 C      6.446336      5.710109      5.947311
 H      6.596126      4.682684      6.388276
 H      6.566743      5.700749      4.766666
 C      6.189363      6.859239      6.657560
 H      5.989875      7.770584      6.030427
 H      5.982442      7.031930      7.724024
6
Step 861
 C      6.477886      5.850102      5.849355
 H      6.565500      4.745468      6.121350
 H      6.410043      6.142802      4.690094
 C      6.180865      6.736180      6.749463
 H      5.863665      7.756991      6.384738
 H      6.028506      6.321325      7.725717
6
Step 881
 C      6.480115      5.948171      5.696478
 H      6.795360      4.831913      5.773798
 H      6.580945      6.462457      4.623742
 C      6.123383      6.622627      6.858765
 H      5.962646      7.690878      7.164994
 H      6.194142      6.147003      7.818176
6
Step 901
 C      6.457948      6.134373      5.674577
 H      6.817323      5.079389      5.389714
 H      6.570580      6.845547      4.757901
 C      6.144355      6.435181      6.919096
 H      5.933025      7.522978      7.051512
 H      6.231878      5.679725      7.662877
6
Step 921
 C      6.482006      6.285264      5.615276
 H      6.684603      5.320128      5.057212
 H      6.283947      7.285674      5.206475
 C      6.188543      6.275729      6.938200
 H      5.722661      7.178788      7.452034
 H      6.052282      5.425688      7.570890
6
Step 941
 C      6.452026      6.444556      5.643281
 H      6.728148      5.849365      4.757596
 H      6.364362      7.407424      5.215678
 C      6.172996      6.115831      6.932885
 H      5.939016      6.863961      7.719784
 H      6.258233      5.077515      7.272207
6
Step 961
 C      6.389933      6.631200      5.701021
 H      6.737073      5.914022      4.976330
 H      6.410826      7.651516      5.663649
 C      6.197954      5.943579      6.844100
 H      6.098330      6.542282      7.767468
 H      6.490829      4.899851      6.879514
6
Step 981
 C      6.361873      6.739903      5.780429
 H      6.593744      6.559764      4.720272
 H      6.258229      7.731887      5.952449
 C      6.275746      5.836774      6.778082
 H      5.958993      5.931102      7.799880
 H      6.338282      4.742802      6.604856
6
Step 1001
 C      6.340496      6.846894      5.898541
 H      6.436489      6.927517      4.831083
 H      6.063490      7.744089      6.359971
 C      6.322044      5.700718      6.664750
 H      5.994022      5.877442      7.659721
 H      6.362898      4.743585      6.121268
6
Step 1021
 C      6.282943      6.918178      6.072781
 H      6.488532      7.040691      5.016658
 H      6.109369      7.710262      6.761325
 C      6.325613      5.663786      6.460975
 H      6.284075      5.408042      7.508230
 H      6.623576      4.703691      5.990618
6
Step 1041
 C      6.245083      6.953131      6.183883
 H      6.388317      7.559894      5.293129
 H      6.114597      7.719320      6.993117
 C      6.366554      5.577697      6.372339
 H      6.311620      5.061285      7.310043
 H      6.660605      5.114815      5.366354
6
Step 1061
 C      6.233080      6.928131      6.364592
 H      6.241364      7.485585      5.427168
 H      5.926421      7.299736      7.397699
 C      6.427988      5.654154      6.189838
 H      6.253327      4.914444      6.949314
 H      6.472155      5.129864      5.163829
6
Step 1081
 C      6.203955      6.905738      6.515387
 H      6.118801      7.867027      5.922023
 H      5.936202      7.158845      7.630315
 C      6.435333      5.643065      6.012410
 H      6.454189      4.853199      6.758364
 H      6.651204      5.345847      4.899556
6
Step 1101
 C      6.167279      6.827534      6.595589
 H      6.150494      7.889129      6.257647
 H      6.139558      6.626620      7.760842
 C      6.426884      5.726748      5.925409
 H      6.658708      4.760848      6.381199
 H      6.757210      5.882464      4.846135
6
Step 1121
 C      6.152197      6.715797      6.767187
 H      6.052866      7.756320      6.373218
 H      5.999910      6.481070      7.906267
 C      6.488994      5.842683      5.777142
 H      6.558124      4.762017      5.957905
 H      6.544023      6.108945      4.686043
6
Step 1141
 C      6.166333      6.608739      6.819172
 H      5.900541      7.682917      6.880892
 H      5.940019      6.204207      7.882341
 C      6.500845      5.939334      5.698682
 H      6.576619      4.844212      5.665581
 H      6.438135      6.500783      4.766242
6
Step 1161
 C      6.152374      6.496435      6.884660
 H      5.978973      7.560099      7.045335
 H      6.232380      5.630570      7.552049
 C      6.451281      6.071438      5.655612
 H      6.788559      5.055981      5.429282
 H      6.623123      6.749054      4.853916
6
Step 1181
 C      6.163012      6.338254      6.916965
 H      5.947970      7.249834      7.475895
 H      6.199596      5.628326      7.725969
 C      6.456093      6.222608      5.579391
 H      6.759767      5.209931      5.283877
 H      6.541844      6.990790      4.871783
6
Step 1201
 C      6.193986      6.228409      6.920036
 H      5.856713      7.137591      7.380700
 H      6.198099      5.240978      7.319870
 C      6.468458      6.330421      5.620851
 H      6.631569      5.489592      4.933382
 H      6.255403      7.234788      5.149379
6
Step 1221
 C      6.215348      6.098769      6.897069
 H      5.852197      6.809484      7.633983
 H      6.260239      5.109020      7.250807
 C      6.430490      6.456122      5.617271
 H      6.736587      5.773163      4.807121
 H      6.298230      7.458819      5.361616
6
Step 1241
 C      6.217030      5.969151      6.857132
 H      5.976438      6.508600      7.751017
 H      6.445834      4.950707      7.064237
 C      6.386326      6.593356      5.648008
 H      6.840272      5.970226      4.846311
 H      6.397510      7.630833      5.450811
6
Step 1261
 C      6.240442      5.893734      6.788161
 H      5.946289      6.329234      7.723381
 H      6.471986      4.901645      6.568170
 C      6.397414      6.659373      5.740103
 H      6.678501      6.232084      4.743201
 H      6.156641      7.709977      5.755673
6
Step 1281
 C      6.277992      5.785634      6.725825
 H      5.928189      5.890210      7.741328
 H      6.388088      4.728814      6.640298
 C      6.387451      6.782909      5.772987
 H      6.575547      6.578883      4.681281
 H      6.037008      7.791131      6.036271
6
Step 1301
 C      6.299040      5.720203      6.624303
 H      6.024698      5.967803      7.643059
 H      6.578827      4.755571      6.208149
 C      6.320889      6.813223      5.882807
 H      6.683819      6.836173      4.818728
 H      6.186970      7.846940      6.287804
6
Step 1321
 C      6.313471      5.682529      6.542190
 H      6.156014      5.413667      7.608890
 H      6.631525      4.774700      5.975684
 C      6.302256      6.889094      5.951774
 H      6.637777      6.967732      4.887325
 H      6.101439      7.791461      6.601547
6
Step 1341
 C      6.354168      5.626839      6.454390
 H      6.103825      5.245845      7.477965
 H      6.570707      4.836030      5.660306
 C      6.306177      6.927515      6.060340
 H      6.401039      7.245798      4.998172
 H      5.920540      7.822518      6.648276
6
Step 1361
 C      6.383185      5.636264      6.322041
 H      6.137521      5.262610      7.355827
 H      6.626993      4.910991      5.470306
 C      6.262093      6.924127      6.167487
 H      6.429279      7.314672      5.163874
 H      5.982301      7.587586      7.054622
6
Step 1381
 C      6.386634      5.603171      6.244445
 H      6.340477      4.912120      7.138092
 H      6.722185      4.971688      5.332565
 C      6.223224      6.962358      6.231170
 H      6.443426      7.686949      5.457340
 H      6.092228      7.440859      7.242118
6
Step 1401
 C      6.409156      5.631784      6.130261
 H      6.324033      4.946607      7.008602
 H      6.643432      5.308389      5.063320
 C      6.235827      6.915710      6.358875
 H      6.274764      7.618003      5.560499
 H      5.936105      7.346438      7.336335
6
Step 1421
 C      6.434983      5.659418      6.034043
 H      6.360137      4.724765      6.638495
 H      6.595639      5.381278      4.952755
 C      6.224437      6.917831      6.467957
 H      6.154381      7.626170      5.695447
 H      5.894665      7.127535      7.489066
6
Step 1441
 C      6.441868      5.675336      5.951092
 H      6.504014      4.734664      6.504801
 H      6.659524      5.704021      4.870031
 C      6.181574      6.870106      6.518811
 H      6.193810      7.836809      6.141475
 H      6.075107      6.965174      7.600841
6
Step 1461
 C      6.450422      5.765631      5.844952
 H      6.572619      4.826429      6.355349
 H      6.672413      5.761427      4.791456
 C      6.163669      6.805590      6.631783
 H      6.204159      7.740222      6.162982
 H      6.094667      6.608369      7.686613
6
Step 1481
 C      6.476353      5.805186      5.773363
 H      6.549196      4.771085      5.979063
 H      6.558575      6.040672      4.733078
 C      6.183992      6.747401      6.704400
 H      5.945619      7.783209      6.491677
 H      5.939486      6.564435      7.741507
6
Step 1501
 C      6.478708      5.878657      5.721763
 H      6.604305      4.841012      5.779314
 H      6.524824      6.388968      4.819066
 C      6.167947      6.670732      6.754151
 H      5.964783      7.745992      6.590471
 H      6.062562      6.223536      7.737983
6
Step 1521
 C      6.467115      5.995660      5.645775
 H      6.731960      4.973861      5.621494
 H      6.598579      6.424274      4.712709
 C      6.141698      6.557789      6.824720
 H      6.085343      7.692187      6.822044
 H      6.192036      6.062691      7.793901
6
Step 1541
 C      6.472571      6.060731      5.602582
 H      6.708656      5.023965      5.466929
 H      6.476047      6.741635      4.798895
 C      6.170997      6.499323      6.845517
 H      5.866193      7.535184      7.228673
 H      6.142499      5.775228      7.679448
6
Step 1561
 C      6.464257      6.176255      5.606052
 H      6.680232      5.194627      5.178962
 H      6.380969      6.944251      4.856763
 C      6.198823      6.386311      6.880291
 H      5.753421      7.409077      7.133363
 H      6.145013      5.500287      7.505291
6
Step 1581
 C      6.453489      6.288685      5.553358
 H      6.822381      5.366228      5.032961
 H      6.373847      7.221740      4.953151
 C      6.176123      6.251019      6.891575
 H      5.903476      7.229207      7.453997
 H      6.255453      5.505433      7.677682
6
Step 1601
 C      6.436946      6.367367      5.599714
 H      6.870901      5.600524      4.877822
 H      6.321799      7.418678      5.190743
 C      6.175911      6.177242      6.865909
 H      5.918941      7.062734      7.530644
 H      6.440055      5.184020      7.217513
6
Step 1621
 C      6.431765      6.513932      5.601962
 H      6.753659      5.740877      4.803731
 H      6.226188      7.577569      5.206556
 C      6.226790      6.055830      6.858753
 H      5.730589      6.641021      7.693801
 H      6.295755      5.008852      7.113247
6
Step 1641
 C      6.409353      6.611583      5.652067
 H      6.767819      6.032096      4.707874
 H      6.178473      7.739836      5.492017
 C      6.234157      5.947134      6.802983
 H      5.840095      6.450096      7.702064
 H      6.399250      4.880308      6.921405
6
Step 1661
 C      6.379786      6.681678      5.716353
 H      6.803736      6.480239      4.676960
 H      6.171587      7.789693      5.966824
 C      6.226856      5.849994      6.725778
 H      6.038302      6.288393      7.693448
 H      6.612119      4.868768      6.575155
6
Step 1681
 C      6.351058      6.827151      5.787992
 H      6.660675      6.700611      4.718964
 H      6.090862      7.881644      6.115163
 C      6.288964      5.737731      6.642369
 H      5.982517      5.767070      7.656570
 H      6.494227      4.684371      6.492571
6
Step 1701
 C      6.319228      6.858118      5.934118
 H      6.514992      6.911392      4.874338
 H      6.005180      7.819755      6.375465
 C      6.345812      5.689205      6.527391
 H      5.929639      5.647642      7.475998
 H      6.481272      4.867486      5.813510
6
Step 1721
 C      6.278441      6.952125      6.038340
 H      6.517769      7.286725      5.076773
 H      6.037184      7.638269      6.825441
 C      6.343149      5.622148      6.388028
 H      6.229292      5.157345      7.333985
 H      6.667063      4.848135      5.643895
6
Step 1741
 C      6.244545      6.955780      6.207106
 H      6.390453      7.588583      5.423898
 H      6.053976      7.513890      7.071597
 C      6.369766      5.598239      6.202342
 H      6.351200      5.129093      7.159099
 H      6.746042      4.944391      5.343619
6
Step 1761
 C      6.224817      6.917598      6.377270
 H      6.193347      7.614002      5.640153
 H      5.984441      7.117953      7.367228
 C      6.440893      5.648178      6.042168
 H      6.238543      4.926097      6.846418
 H      6.517643      5.377873      4.937131
6
Step 1781
 C      6.193495      6.879622      6.541607
 H      6.093422      7.801534      6.035300
 H      6.016514      6.954557      7.573679
 C      6.451740      5.684257      5.896262
 H      6.552975      4.622088      6.129771
 H      6.519482      5.683296      4.740219
6
Step 1801
 C      6.172362      6.714060      6.681970
 H      6.060212      7.758483      6.343811
 H      6.193257      6.595282      7.751507
 C      6.429649      5.814186      5.710411
 H      6.810682      4.876664      6.127771
 H      6.637051      6.256555      4.702122
6
Step 1821
 C      6.161741      6.574487      6.786648
 H      5.800944      7.692706      6.832163
 H      6.244312      5.920464      7.665047
 C      6.472539      6.002324      5.622532
 H      6.795778      4.914411      5.554843
 H      6.481572      6.381480      4.575237
6
Step 1841
 C      6.156763      6.420256      6.834730
 H      5.684308      7.325399      7.454177
 H      6.195500      5.587777      7.594308
 C      6.520924      6.154937      5.529170
 H      6.721014      5.091474      5.204374
 H      6.211657      6.924333      4.813613
6
Step 1861
 C      6.179618      6.162725      6.830184
 H      5.818935      7.224786      7.258027
 H      6.380961      5.216417      7.406620
 C      6.437886      6.381459      5.559560
 H      6.919129      5.537417      4.951897
 H      6.419048      7.320298      5.040077
6
Step 1881
 C      6.201380      6.007492      6.797015
 H      5.825950      6.605228      7.797839
 H      6.392485      4.932160      7.127634
 C      6.425834      6.543145      5.551646
 H      6.882930      6.064136      4.649693
 H      6.330400      7.621019      5.472203
6
Step 1901
 C      6.248240      5.868200      6.695774
 H      5.887797      6.126990      7.761595
 H      6.372038      4.783758      6.429345
 C      6.421639      6.710774      5.678286
 H      6.606888      6.283438      4.677876
 H      6.065779      7.691246      5.777738
6
Step 1921
 C      6.302850      5.690782      6.541757
 H      6.036375      5.757398      7.621686
 H      6.486230      4.700919      6.096698
 C      6.340966      6.870635      5.837142
 H      6.542273      6.736098      4.761502
 H      6.187725      7.899901      6.013318
6
Step 1941
 C      6.334464      5.655277      6.410177
 H      6.266577      5.284614      7.368342
 H      6.576112      4.800727      5.767595
 C      6.275715      6.920580      5.933106
 H      6.564312      7.249769      4.933409
 H      6.255541      7.587059      6.754759
6
Step 1961
 C      6.390362      5.592776      6.196164
 H      6.328162      5.269304      7.135457
 H      6.516635      5.037899      5.286271
 C      6.262341      6.942938      6.148205
 H      6.279204      7.582317      5.267863
 H      6.041132      7.518319      7.029591
6
Step 1981
 C      6.431050      5.622562      6.010768
 H      6.426875      4.832914      6.680885
 H      6.528591      5.138497      5.045199
 C      6.235621      6.951433      6.341533
 H      6.079202      7.597849      5.486278
 H      5.974227      7.392044      7.322040
6
Step 2001
 C      6.449546      5.689544      5.890757
 H      6.618281      4.776529      6.343007
 H      6.553730      5.888377      4.800686
 C      6.177325      6.853585      6.450232
 H      6.125264      7.777632      5.872239
 H      6.197300      6.893842      7.565571
6
Step 2021
 C      6.472182      5.792850      5.690678
 H      6.747544      4.829696      6.087174
 H      6.595453      5.920748      4.565235
 C      6.153337      6.761826      6.624540
 H      6.031999      7.825136      6.394579
 H      6.146931      6.627915      7.756411
6
Step 2041
 C      6.488090      5.959881      5.617105
 H      6.704832      4.859437      5.722382
 H      6.474072      6.202820      4.497234
 C      6.180344      6.634420      6.712797
 H      5.772719      7.647588      6.651366
 H      6.069855      6.025952      7.675380
6
Step 2061
 C      6.500219      6.067862      5.531779
 H      6.787037      4.949329      5.406071
 H      6.398700      6.928515      4.839492
 C      6.158004      6.494754      6.759433
 H      5.766583      7.480406      7.047243
 H      6.202758      5.758561      7.631736
6
Step 2081
 C      6.477633      6.241037      5.510683
 H      6.922234      5.409700      4.807149
 H      6.510696      7.044611      4.752488
 C      6.138154      6.304388      6.820923
 H      5.951416      7.329857      7.159072
 H      6.289044      5.541236      7.642877
6
Step 2101
 C      6.471779      6.397790      5.499734
 H      6.812691      5.409965      4.966858
 H      6.282331      7.420877      5.191130
 C      6.188263      6.175430      6.785102
 H      5.838020      7.009291      7.425101
 H      6.224462      5.157530      7.255266
6
Step 2121
 C      6.446947      6.529193      5.550004
 H      6.722339      5.888112      4.592542
 H      6.342797      7.540559      5.177050