ITEM: TIMESTEP
49600
ITEM: NUMBER OF ATOMS
6
ITEM: BOX BOUNDS pp pp pp
0.0000000000000000e+00 1.0000000000000000e+01
0.0000000000000000e+00 1.0000000000000000e+01
0.0000000000000000e+00 1.0000000000000000e+01
ITEM: ATOMS id type x y z vx vy vz
5 2 4.41279 4.88583 3.58653 7.08544 6.08601 13.4228
1 1 5.13925 4.77703 4.39276 -3.29265 -2.58083 -0.326831
6 2 6.05892 4.22206 4.18923 -18.9045 -9.98571 4.87149
3 2 3.93191 5.77502 5.78647 19.8833 9.64719 -7.13818
2 1 4.86125 5.2258 5.60988 3.02836 2.24034 1.04497
4 2 5.59288 5.08296 6.40815 -4.91488 -1.69018 -19.7136
ITEM: TIMESTEP
49700
ITEM: NUMBER OF ATOMS
6
ITEM: BOX BOUNDS pp pp pp
0.0000000000000000e+00 1.0000000000000000e+01
0.0000000000000000e+00 1.0000000000000000e+01
0.0000000000000000e+00 1.0000000000000000e+01
ITEM: ATOMS id type x y z vx vy vz
5 2 4.52816 5.07168 3.5475 -2.13551 7.8951 -8.98987
1 1 4.76 4.62689 4.50679 -2.48009 -0.397044 2.09383
6 2 4.58878 3.57732 4.66908 -20.7612 -4.58142 17.0424
3 2 5.39571 6.42056 5.34514 21.1544 6.4388 -7.1139
2 1 5.2431 5.3734 5.49229 2.08593 -0.185633 -3.12217
4 2 5.4528 4.92658 6.45105 6.43922 -2.80925 11.3153
ITEM: TIMESTEP
49800
ITEM: NUMBER OF ATOMS
6
ITEM: BOX BOUNDS pp pp pp
0.0000000000000000e+00 1.0000000000000000e+01
0.0000000000000000e+00 1.0000000000000000e+01
0.0000000000000000e+00 1.0000000000000000e+01
ITEM: ATOMS id type x y z vx vy vz
5 2 4.51496 4.33859 3.69665 -7.24414 -7.36774 11.0172
1 1 4.45915 4.73004 4.73126 -2.95743 0.828029 1.77858
6 2 3.53096 4.62748 5.34688 -1.62642 17.0961 -1.62235
3 2 6.4778 5.39712 4.66512 1.16108 -13.4602 -3.44649
2 1 5.53754 5.26632 5.26828 3.15664 -1.17901 -1.55356
4 2 5.51821 5.67986 6.29859 5.33575 7.91403 -8.62973
ITEM: TIMESTEP
49900
ITEM: NUMBER OF ATOMS
6
ITEM: BOX BOUNDS pp pp pp
0.0000000000000000e+00 1.0000000000000000e+01
0.0000000000000000e+00 1.0000000000000000e+01
0.0000000000000000e+00 1.0000000000000000e+01
ITEM: ATOMS id type x y z vx vy vz
5 2 3.90167 3.95417 4.97139 -9.21838 9.44971 20.4498
1 1 4.34093 4.93074 4.99722 -1.61187 2.67727 2.03474
6 2 3.69799 5.77261 5.04645 -1.80345 -0.113431 -4.82014
3 2 6.28709 4.21327 4.9524 -3.70244 -1.20333 -1.2662
2 1 5.66112 5.06987 5.00164 2.75768 -2.5697 -1.46704
4 2 6.09123 6.05226 5.04504 1.07075 -9.41472 -21.1282
ITEM: TIMESTEP
50000
ITEM: NUMBER OF ATOMS
6
ITEM: BOX BOUNDS pp pp pp
0.0000000000000000e+00 1.0000000000000000e+01
0.0000000000000000e+00 1.0000000000000000e+01
0.0000000000000000e+00 1.0000000000000000e+01
ITEM: ATOMS id type x y z vx vy vz
5 2 4.09537 4.98749 6.26879 4.25995 13.2072 19.8329
1 1 4.43985 5.24218 5.24834 0.684598 3.86411 1.56288
6 2 3.77954 5.89432 4.63471 -9.02476 5.3147 -2.94971
3 2 6.20751 4.10616 5.36972 11.0438 -7.57416 -1.80897
2 1 5.56106 4.75478 4.75022 -1.41235 -3.41648 -1.12996
4 2 5.90913 5.04789 3.74573 2.39294 -16.2819 -20.2329
ITEM: TIMESTEP
50100
ITEM: NUMBER OF ATOMS
6
ITEM: BOX BOUNDS pp pp pp
0.0000000000000000e+00 1.0000000000000000e+01
0.0000000000000000e+00 1.0000000000000000e+01
0.0000000000000000e+00 1.0000000000000000e+01
ITEM: ATOMS id type x y z vx vy vz
2 1 5.27909 4.47128 4.71707 -2.46899 -5.46025 -0.0762093
4 2 4.7475 3.84304 3.99671 4.14397 -1.85133 16.3531
6 2 3.67519 5.77188 5.08608 10.9687 3.90782 16.7368
3 2 6.32488 4.20553 4.90262 -9.13418 -2.20346 -19.683
5 2 5.28772 6.15586 5.9771 -4.91588 1.37237 -18.4268
1 1 4.71815 5.53068 5.28622 2.37981 5.35741 0.497476
ITEM: TIMESTEP
50200
ITEM: NUMBER OF ATOMS
6
ITEM: BOX BOUNDS pp pp pp
0.0000000000000000e+00 1.0000000000000000e+01
0.0000000000000000e+00 1.0000000000000000e+01
0.0000000000000000e+00 1.0000000000000000e+01
ITEM: ATOMS id type x y z vx vy vz
2 1 4.95866 4.35987 4.82001 -2.41243 -1.64663 1.66096
4 2 4.33839 3.66054 5.3597 -6.14218 -9.62913 13.0213
6 2 4.46508 6.03244 5.99812 14.845 18.4129 12.0814
3 2 5.5438 3.96262 4.01017 -15.13 -10.1149 -16.3841
5 2 5.64845 6.35669 4.64677 3.52752 17.6637 -9.47251
1 1 5.0419 5.63907 5.1789 2.65577 0.275993 -1.59769
ITEM: TIMESTEP
50300
ITEM: NUMBER OF ATOMS
6
ITEM: BOX BOUNDS pp pp pp
0.0000000000000000e+00 1.0000000000000000e+01
0.0000000000000000e+00 1.0000000000000000e+01
0.0000000000000000e+00 1.0000000000000000e+01
ITEM: ATOMS id type x y z vx vy vz
2 1 4.64207 4.43934 5.04592 -3.567 0.701647 3.73058
4 2 4.77274 3.72404 5.88789 -4.1899 -7.36581 -8.06309
6 2 6.09673 5.87889 5.73681 8.57332 -0.971287 -13.0142
3 2 3.93098 4.13535 4.23481 -13.3618 -0.790714 16.5548
5 2 5.24505 6.28345 4.11855 0.82898 3.0693 7.40179
1 1 5.35431 5.5588 4.95607 4.2509 -0.193216 -3.97221
ITEM: TIMESTEP
50400
ITEM: NUMBER OF ATOMS
6
ITEM: BOX BOUNDS pp pp pp
0.0000000000000000e+00 1.0000000000000000e+01
0.0000000000000000e+00 1.0000000000000000e+01
0.0000000000000000e+00 1.0000000000000000e+01
ITEM: ATOMS id type x y z vx vy vz
2 1 4.51969 4.69069 5.35129 -0.0793173 2.79795 4.6023
4 2 4.63406 3.69319 5.73512 -17.88 2.30529 -5.41666
6 2 6.40204 4.8434 4.39939 -5.90145 -3.57615 -10.9702
3 2 3.58239 5.13554 5.59771 5.96755 -1.13427 14.9602
5 2 5.34088 6.30241 4.26624 13.3555 -3.24923 1.29667
1 1 5.48391 5.31141 4.64899 0.453467 -2.32344 -4.59139
ITEM: TIMESTEP
50500
ITEM: NUMBER OF ATOMS
6
ITEM: BOX BOUNDS pp pp pp
0.0000000000000000e+00 1.0000000000000000e+01
0.0000000000000000e+00 1.0000000000000000e+01
0.0000000000000000e+00 1.0000000000000000e+01
ITEM: ATOMS id type x y z vx vy vz
2 1 4.6343 4.97678 5.56167 2.11061 3.02926 1.19659
4 2 3.83903 4.22995 5.74014 -17.0392 6.95286 4.92891
6 2 5.19012 4.34659 3.57057 -7.95104 2.15803 -16.2263
3 2 4.81523 5.64837 6.42684 13.449 1.69314 11.4125
5 2 6.15254 5.78422 4.25887 15.4468 -3.78161 -13.4765
1 1 5.36616 5.02242 4.43878 -2.43836 -3.61858 -0.07531
ITEM: TIMESTEP
50600
ITEM: NUMBER OF ATOMS
6
ITEM: BOX BOUNDS pp pp pp
0.0000000000000000e+00 1.0000000000000000e+01
0.0000000000000000e+00 1.0000000000000000e+01
0.0000000000000000e+00 1.0000000000000000e+01
ITEM: ATOMS id type x y z vx vy vz
2 1 4.8876 5.25079 5.61813 2.99703 3.9665 0.261944
4 2 3.9769 5.79837 5.87643 23.4308 6.30344 1.79138
6 2 4.40612 4.83955 3.55224 8.96622 8.1634 7.07967
3 2 5.60342 5.121 6.43095 -9.04928 -5.19613 -4.66847
5 2 6.01511 4.19708 4.10527 -23.4306 -0.426747 0.739986
1 1 5.11247 4.75287 4.38496 -2.99008 -4.70869 -0.676726
ITEM: TIMESTEP
50700
ITEM: NUMBER OF ATOMS
6
ITEM: BOX BOUNDS pp pp pp
0.0000000000000000e+00 1.0000000000000000e+01
0.0000000000000000e+00 1.0000000000000000e+01
0.0000000000000000e+00 1.0000000000000000e+01
ITEM: ATOMS id type x y z vx vy vz
2 1 5.2657 5.3824 5.49081 3.05968 -1.59491 -3.55174
4 2 5.48923 6.43637 5.36368 19.2287 9.72047 -5.4781
6 2 4.42749 5.02046 3.56232 0.494723 2.77156 -8.47071
3 2 5.55618 5.00553 6.46152 0.120077 3.30317 9.64976
5 2 4.50871 3.56934 4.64758 -16.4804 -9.4127 13.5843
1 1 4.73605 4.61491 4.50639 -3.34191 1.05929 2.77252
ITEM: TIMESTEP
50800
ITEM: NUMBER OF ATOMS
6
ITEM: BOX BOUNDS pp pp pp
0.0000000000000000e+00 1.0000000000000000e+01
0.0000000000000000e+00 1.0000000000000000e+01
0.0000000000000000e+00 1.0000000000000000e+01
ITEM: ATOMS id type x y z vx vy vz
2 1 5.56369 5.2685 5.24845 1.86313 -0.930476 -2.65237
4 2 6.51441 5.3528 4.6747 -5.5764 -19.8001 -2.63742
6 2 4.35672 4.35464 3.69371 -6.5269 -3.75927 7.74724
3 2 5.64984 5.67087 6.2915 -0.732964 3.60227 -9.43706
5 2 3.49394 4.64946 5.34444 -0.55966 21.1754 -1.28113
1 1 4.43526 4.72914 4.75134 -0.738942 0.828232 3.12303
ITEM: TIMESTEP
50900
ITEM: NUMBER OF ATOMS
6
ITEM: BOX BOUNDS pp pp pp
0.0000000000000000e+00 1.0000000000000000e+01
0.0000000000000000e+00 1.0000000000000000e+01
0.0000000000000000e+00 1.0000000000000000e+01
ITEM: ATOMS id type x y z vx vy vz
2 1 5.67837 5.05311 4.98646 -0.304273 -2.42272 -3.06605
4 2 6.29935 4.18069 4.90882 -11.4783 -7.24639 5.16035
6 2 3.80941 4.01585 5.00898 3.9853 6.50514 14.1698
3 2 6.17818 5.98956 4.98894 -2.84265 -4.62984 -14.9267
5 2 3.67041 5.7974 5.10547 10.9171 4.45028 -11.6721
1 1 4.32541 4.94824 5.01266 0.255481 2.49999 3.67603
ITEM: TIMESTEP
51000
ITEM: NUMBER OF ATOMS
6
ITEM: BOX BOUNDS pp pp pp
0.0000000000000000e+00 1.0000000000000000e+01
0.0000000000000000e+00 1.0000000000000000e+01
0.0000000000000000e+00 1.0000000000000000e+01
ITEM: ATOMS id type x y z vx vy vz
2 1 5.5604 4.7364 4.74186 -4.21854 -1.12991 -0.597651
4 2 6.20755 4.03709 5.30526 1.60064 -8.52606 8.43614
6 2 4.11439 5.05616 6.30203 17.343 9.01608 16.5403
3 2 5.90707 4.95436 3.70216 -10.5867 -11.8482 -14.2739
5 2 3.80828 5.97456 4.69552 1.27356 5.78991 -16.4546
1 1 4.43668 5.2617 5.25787 3.41034 1.5972 1.08036
ITEM: TIMESTEP
51100
ITEM: NUMBER OF ATOMS
6
ITEM: BOX BOUNDS pp pp pp
0.0000000000000000e+00 1.0000000000000000e+01
0.0000000000000000e+00 1.0000000000000000e+01
0.0000000000000000e+00 1.0000000000000000e+01
ITEM: ATOMS id type x y z vx vy vz
2 1 5.25938 4.45145 4.71796 -2.15923 -2.20892 0.109255
3 2 4.69481 3.83946 4.01432 -14.5318 6.27854 20.4716
5 2 3.70097 5.85153 5.1074 16.6525 -6.4949 5.86051
4 2 6.29417 4.1299 4.86803 -17.0085 12.3897 -1.6369
6 2 5.33078 6.16065 5.97228 12.7334 -2.02586 -23.847
1 1 4.73908 5.55006 5.28537 2.34003 1.35734 -0.180439
ITEM: TIMESTEP
51200
ITEM: NUMBER OF ATOMS
6
ITEM: BOX BOUNDS pp pp pp
0.0000000000000000e+00 1.0000000000000000e+01
0.0000000000000000e+00 1.0000000000000000e+01
0.0000000000000000e+00 1.0000000000000000e+01
ITEM: ATOMS id type x y z vx vy vz
2 1 4.94149 4.35128 4.84055 -2.42074 1.53162 2.79575
3 2 4.26388 3.71038 5.38015 -9.20885 9.24426 20.2631
5 2 4.53988 6.07688 6.00182 7.32187 0.0389756 17.2157
4 2 5.4795 3.94146 3.99663 -4.94576 3.00138 -20.5258
6 2 5.7194 6.30988 4.62823 2.54421 -3.89037 -20.6248
1 1 5.05849 5.64545 5.15902 2.78064 -2.23606 -2.48761
ITEM: TIMESTEP
51300
ITEM: NUMBER OF ATOMS
6
ITEM: BOX BOUNDS pp pp pp
0.0000000000000000e+00 1.0000000000000000e+01
0.0000000000000000e+00 1.0000000000000000e+01
0.0000000000000000e+00 1.0000000000000000e+01
ITEM: ATOMS id type x y z vx vy vz
2 1 4.63006 4.45426 5.06206 -1.09098 2.0726 2.17454
3 2 4.75634 3.7743 5.9453 2.63483 7.22392 1.37829
5 2 6.1236 5.82438 5.70628 6.81721 -21.6082 -9.77141
4 2 3.90005 4.15295 4.27846 -8.38105 16.8236 15.0837
6 2 5.25061 6.23538 4.06408 -9.36376 -9.21781 -4.77571
1 1 5.36757 5.54679 4.93859 1.78691 -1.50375 -2.33524
ITEM: TIMESTEP
51400
ITEM: NUMBER OF ATOMS
6
ITEM: BOX BOUNDS pp pp pp
0.0000000000000000e+00 1.0000000000000000e+01
0.0000000000000000e+00 1.0000000000000000e+01
0.0000000000000000e+00 1.0000000000000000e+01
ITEM: ATOMS id type x y z vx vy vz
2 1 4.53173 4.71847 5.37391 0.792988 3.25586 2.91599
3 2 4.63378 3.73062 5.73935 0.92244 4.1006 -9.25949
5 2 6.39073 4.76399 4.42321 -11.8532 -13.5126 -8.56353
4 2 3.5959 5.20611 5.55842 11.9763 15.6433 7.26557
6 2 5.33479 6.27597 4.27252 -0.0519496 -6.26998 6.03963
1 1 5.47223 5.28345 4.62678 -0.876367 -3.25261 -2.53685
ITEM: TIMESTEP
51500
ITEM: NUMBER OF ATOMS
6
ITEM: BOX BOUNDS pp pp pp
0.0000000000000000e+00 1.0000000000000000e+01
0.0000000000000000e+00 1.0000000000000000e+01
0.0000000000000000e+00 1.0000000000000000e+01
ITEM: ATOMS id type x y z vx vy vz
2 1 4.66093 4.99649 5.5657 3.64033 1.86219 0.755754
3 2 3.85136 4.24591 5.72625 -16.3689 5.96339 -7.37163
5 2 5.11745 4.28085 3.63884 -14.7223 -6.70805 -7.04781
4 2 4.89038 5.73907 6.34697 18.244 11.9651 5.24464
6 2 6.15353 5.73904 4.25982 12.4768 -7.4972 -0.903348
1 1 5.3382 5.00307 4.43681 -3.60924 -2.17464 0.0900054
ITEM: TIMESTEP
51600
ITEM: NUMBER OF ATOMS
6
ITEM: BOX BOUNDS pp pp pp
0.0000000000000000e+00 1.0000000000000000e+01
0.0000000000000000e+00 1.0000000000000000e+01
0.0000000000000000e+00 1.0000000000000000e+01
ITEM: ATOMS id type x y z vx vy vz
2 1 4.91837 5.26494 5.59854 3.52353 1.85197 0.117043
3 2 3.9928 5.78284 5.84238 23.2482 11.9779 -2.59391
5 2 4.33292 4.88056 3.61934 5.941 4.23034 13.455
4 2 5.68156 5.10704 6.37202 -10.8311 -1.31557 -11.911
6 2 5.98732 4.19856 4.15025 -16.3118 -7.21576 8.29327
1 1 5.08229 4.73763 4.40296 -3.69526 -2.49622 -0.724903
ITEM: TIMESTEP
51700
ITEM: NUMBER OF ATOMS
6
ITEM: BOX BOUNDS pp pp pp
0.0000000000000000e+00 1.0000000000000000e+01
0.0000000000000000e+00 1.0000000000000000e+01
0.0000000000000000e+00 1.0000000000000000e+01
ITEM: ATOMS id type x y z vx vy vz
2 1 5.29123 5.37331 5.45793 4.24606 -1.07078 -3.76829
3 2 5.46543 6.42168 5.29738 15.3403 4.66963 -7.51803
5 2 4.42695 5.07093 3.59865 -2.21298 2.85357 -14.9749
4 2 5.56213 4.96101 6.41096 -1.97365 1.72009 16.6977
6 2 4.52809 3.5778 4.7343 -12.6158 -5.6213 8.59147
1 1 4.71043 4.62402 4.53875 -4.12336 0.766825 3.53363
ITEM: TIMESTEP
51800
ITEM: NUMBER OF ATOMS
6
ITEM: BOX BOUNDS pp pp pp
0.0000000000000000e+00 1.0000000000000000e+01
0.0000000000000000e+00 1.0000000000000000e+01
0.0000000000000000e+00 1.0000000000000000e+01
ITEM: ATOMS id type x y z vx vy vz
2 1 5.56678 5.25344 5.22015 2.91578 -2.39823 -1.9604
3 2 6.46768 5.27944 4.55961 4.02744 -12.0869 -1.57665
5 2 4.35428 4.40681 3.72464 -11.1965 -6.90902 15.3813
4 2 5.64658 5.61336 6.27142 2.13527 10.1037 -13.2439
6 2 3.52427 4.70985 5.42767 -4.66519 10.4231 -4.81851
1 1 4.43402 4.74573 4.7814 -2.10184 2.26976 2.31771
ITEM: TIMESTEP
51900
ITEM: NUMBER OF ATOMS
6
ITEM: BOX BOUNDS pp pp pp
0.0000000000000000e+00 1.0000000000000000e+01
0.0000000000000000e+00 1.0000000000000000e+01
0.0000000000000000e+00 1.0000000000000000e+01
ITEM: ATOMS id type x y z vx vy vz
2 1 5.66473 5.02755 4.95727 0.587733 -3.38448 -3.40256
3 2 6.22516 4.12567 4.89955 2.20266 6.07849 7.62673
5 2 3.81303 4.04081 4.99917 -6.91477 6.5568 11.784
4 2 6.16564 5.97545 5.00078 10.9879 -10.3607 -16.7377
6 2 3.76044 5.85925 5.11989 -0.286014 -1.54018 -10.6608
1 1 4.33847 4.97232 5.04125 -1.0904 3.32285 4.07289
ITEM: TIMESTEP
52000
ITEM: NUMBER OF ATOMS
6
ITEM: BOX BOUNDS pp pp pp
0.0000000000000000e+00 1.0000000000000000e+01
0.0000000000000000e+00 1.0000000000000000e+01
0.0000000000000000e+00 1.0000000000000000e+01
ITEM: ATOMS id type x y z vx vy vz
2 1 5.53742 4.71933 4.73312 -3.49837 -3.6428 -1.80513
3 2 6.15311 3.99255 5.30976 15.0347 -5.06491 0.205827
5 2 4.17278 5.0597 6.30907 0.91205 12.6587 14.3733
4 2 5.85701 4.92351 3.70055 4.26046 -17.1001 -13.8827
6 2 3.87428 6.03146 4.68424 -12.2428 5.42114 -3.03626
1 1 4.45799 5.28003 5.26673 2.82999 3.98562 2.00148
ITEM: TIMESTEP
52100
ITEM: NUMBER OF ATOMS
6
ITEM: BOX BOUNDS pp pp pp
0.0000000000000000e+00 1.0000000000000000e+01
0.0000000000000000e+00 1.0000000000000000e+01
0.0000000000000000e+00 1.0000000000000000e+01
ITEM: ATOMS id type x y z vx vy vz
2 1 5.23496 4.44449 4.71284 -2.22639 -4.44029 -0.746661
4 2 4.60127 3.83081 4.05494 1.20982 -2.13007 18.8545
6 2 3.76898 5.92166 5.06037 14.5284 8.75771 17.5802
3 2 6.24155 4.08133 4.90765 -12.4669 -2.76475 -12.8711
5 2 5.39879 6.16846 5.94281 -6.06924 8.63414 -21.837
1 1 4.76435 5.55529 5.29018 2.46119 3.39154 0.601764
ITEM: TIMESTEP
52200
ITEM: NUMBER OF ATOMS
6
ITEM: BOX BOUNDS pp pp pp
0.0000000000000000e+00 1.0000000000000000e+01
0.0000000000000000e+00 1.0000000000000000e+01
0.0000000000000000e+00 1.0000000000000000e+01
ITEM: ATOMS id type x y z vx vy vz
2 1 4.91132 4.34735 4.85325 -3.60038 0.260058 0.777932
4 2 4.22985 3.74002 5.42044 -2.90616 -14.2372 13.4672
6 2 4.56749 6.13215 5.96457 10.9147 15.3721 8.82622
3 2 5.44069 3.88634 4.03092 -12.4271 -14.8288 -7.70179
5 2 5.77011 6.28263 4.60291 -0.575479 15.4503 -19.9091
1 1 5.0882 5.64917 5.14531 4.01947 -0.407455 -0.33169
ITEM: TIMESTEP
52300
ITEM: NUMBER OF ATOMS
6
ITEM: BOX BOUNDS pp pp pp
0.0000000000000000e+00 1.0000000000000000e+01
0.0000000000000000e+00 1.0000000000000000e+01
0.0000000000000000e+00 1.0000000000000000e+01
ITEM: ATOMS id type x y z vx vy vz
2 1 4.61799 4.45594 5.08054 -3.03562 0.508043 3.32841
4 2 4.67686 3.80519 5.98611 -5.37846 -1.97348 -5.89069
6 2 6.18189 5.82203 5.65169 11.7248 -6.61614 -13.7229
3 2 3.82878 4.15199 4.35068 -14.1406 -0.372622 16.3555
5 2 5.31773 6.18178 3.99947 -0.879013 0.744579 7.41086
1 1 5.38177 5.5473 4.92062 3.76349 0.181584 -3.67691
ITEM: TIMESTEP
52400
ITEM: NUMBER OF ATOMS
6
ITEM: BOX BOUNDS pp pp pp
0.0000000000000000e+00 1.0000000000000000e+01
0.0000000000000000e+00 1.0000000000000000e+01
0.0000000000000000e+00 1.0000000000000000e+01
ITEM: ATOMS id type x y z vx vy vz
2 1 4.51892 4.73333 5.39411 -1.71738 1.96823 3.1257
4 2 4.60267 3.75887 5.83793 -5.44542 2.1952 2.07373
6 2 6.3786 4.74107 4.37353 -12.7791 -3.20286 -20.9311
3 2 3.60122 5.23354 5.62057 11.4258 8.00122 14.0558
5 2 5.3846 6.23486 4.15992 11.9061 -2.96928 -4.73277
1 1 5.48405 5.2693 4.60672 1.28877 -2.30595 -2.32558
ITEM: TIMESTEP
52500
ITEM: NUMBER OF ATOMS
6
ITEM: BOX BOUNDS pp pp pp
0.0000000000000000e+00 1.0000000000000000e+01
0.0000000000000000e+00 1.0000000000000000e+01
0.0000000000000000e+00 1.0000000000000000e+01
ITEM: ATOMS id type x y z vx vy vz
2 1 4.67304 5.01445 5.59003 1.51784 2.16112 1.15547
4 2 3.84967 4.32155 5.8387 -12.7725 7.56522 6.18053
6 2 5.13177 4.23294 3.6105 -17.396 -4.18146 -15.5017
3 2 4.88486 5.79379 6.35644 14.8687 6.0022 9.33381
5 2 6.1586 5.66252 4.15172 14.0183 -6.99505 -8.93752
1 1 5.32507 4.98462 4.41369 -1.41029 -2.36176 -0.406492
ITEM: TIMESTEP
52600
ITEM: NUMBER OF ATOMS
6
ITEM: BOX BOUNDS pp pp pp
0.0000000000000000e+00 1.0000000000000000e+01
0.0000000000000000e+00 1.0000000000000000e+01
0.0000000000000000e+00 1.0000000000000000e+01
ITEM: ATOMS id type x y z vx vy vz
2 1 4.94133 5.27487 5.61347 2.37119 1.9529 1.25302
4 2 4.06173 5.85007 5.92336 24.1299 11.8693 -3.58197
6 2 4.29409 4.80382 3.61341 3.94115 6.52428 13.8312
3 2 5.7026 5.20653 6.3851 -6.2693 -0.198553 -8.89942
5 2 5.92878 4.1192 4.08467 -21.3733 -7.63205 9.46774
1 1 5.05995 4.72681 4.38613 -2.40714 -2.83935 -2.16083
ITEM: TIMESTEP
52700
ITEM: NUMBER OF ATOMS
6
ITEM: BOX BOUNDS pp pp pp
0.0000000000000000e+00 1.0000000000000000e+01
0.0000000000000000e+00 1.0000000000000000e+01
0.0000000000000000e+00 1.0000000000000000e+01
ITEM: ATOMS id type x y z vx vy vz
2 1 5.32371 5.3794 5.45141 2.63812 -1.30683 -2.44173
4 2 5.51439 6.43504 5.32695 17.4311 9.53935 -17.2684
6 2 4.35832 4.99712 3.58496 -4.3383 1.04837 -7.57203
3 2 5.64934 5.02051 6.42248 0.459498 -5.61409 9.45572
5 2 4.46923 3.5776 4.70825 -18.1578 -8.05811 14.7893
1 1 4.67722 4.61802 4.54516 -2.25163 1.56568 2.4917
ITEM: TIMESTEP
52800
ITEM: NUMBER OF ATOMS
6
ITEM: BOX BOUNDS pp pp pp
0.0000000000000000e+00 1.0000000000000000e+01
0.0000000000000000e+00 1.0000000000000000e+01
0.0000000000000000e+00 1.0000000000000000e+01
ITEM: ATOMS id type x y z vx vy vz
2 1 5.59389 5.23317 5.20637 2.20437 -3.00208 -2.17524
4 2 6.47974 5.3129 4.52624 -8.96239 -16.4874 -5.04653
6 2 4.22415 4.36141 3.77152 -0.302517 -7.04427 7.89589
3 2 5.75635 5.6346 6.2339 -4.52336 9.75101 -10.7502
5 2 3.49927 4.69258 5.44365 4.83866 15.3632 1.86439
1 1 4.40971 4.76667 4.79585 -1.45331 2.86927 2.68182
ITEM: TIMESTEP
52900
ITEM: NUMBER OF ATOMS
6
ITEM: BOX BOUNDS pp pp pp
0.0000000000000000e+00 1.0000000000000000e+01
0.0000000000000000e+00 1.0000000000000000e+01
0.0000000000000000e+00 1.0000000000000000e+01
ITEM: ATOMS id type x y z vx vy vz
2 1 5.66951 5.00565 4.93953 -1.59302 -2.45022 -1.18747
4 2 6.23861 4.10623 4.85182 -7.58741 -5.97538 3.65321
6 2 3.75067 4.10024 5.04213 10.63 4.39845 16.3247
3 2 6.24967 5.90038 4.97548 -3.84728 -6.76594 -23.0862
5 2 3.74846 5.88893 5.15172 15.5524 9.94818 -3.82417
1 1 4.33174 4.99467 5.05884 0.355386 2.31551 1.76925
ITEM: TIMESTEP
53000
ITEM: NUMBER OF ATOMS
6
ITEM: BOX BOUNDS pp pp pp
0.0000000000000000e+00 1.0000000000000000e+01
0.0000000000000000e+00 1.0000000000000000e+01
0.0000000000000000e+00 1.0000000000000000e+01
ITEM: ATOMS id type x y z vx vy vz
2 1 5.51639 4.68701 4.72338 -5.36266 -2.31313 -0.0968949
4 2 6.16233 3.97125 5.26759 1.25764 0.752703 12.6937
6 2 4.15151 5.09078 6.31758 11.4637 3.66164 15.4677
3 2 5.87375 4.90759 3.68958 -12.425 -6.34104 -16.4924
5 2 3.87434 6.03835 4.70958 -1.10687 3.14395 -11.074
1 1 4.47861 5.31229 5.27809 5.43068 2.21098 0.0469506
ITEM: TIMESTEP
53100
ITEM: NUMBER OF ATOMS
6
ITEM: BOX BOUNDS pp pp pp
0.0000000000000000e+00 1.0000000000000000e+01
0.0000000000000000e+00 1.0000000000000000e+01
0.0000000000000000e+00 1.0000000000000000e+01
ITEM: ATOMS id type x y z vx vy vz
2 1 5.20504 4.43056 4.72061 -3.94453 -2.15422 2.38418
3 2 4.5605 3.85253 4.06718 -8.2961 13.1107 19.7751
5 2 3.79837 5.98495 5.09055 13.5223 -9.1629 9.49257
4 2 6.21291 4.0427 4.89882 -10.6929 16.4487 -8.9568
6 2 5.43187 6.15924 5.93511 5.57323 -8.22756 -19.2245
1 1 4.79486 5.5661 5.28024 3.93559 1.133 -2.47535
ITEM: TIMESTEP
53200
ITEM: NUMBER OF ATOMS
6
ITEM: BOX BOUNDS pp pp pp
0.0000000000000000e+00 1.0000000000000000e+01
0.0000000000000000e+00 1.0000000000000000e+01
0.0000000000000000e+00 1.0000000000000000e+01
ITEM: ATOMS id type x y z vx vy vz
2 1 4.88263 4.35733 4.86394 -2.73457 3.98189 3.23626
3 2 4.20471 3.78457 5.48536 -4.25222 0.745187 18.4086
5 2 4.58696 6.15347 5.91681 2.02826 -4.05907 14.6019
4 2 5.40982 3.85134 4.07559 -7.31405 -2.35583 -17.1343
6 2 5.79921 6.23181 4.53931 2.39873 -5.29926 -22.0964
1 1 5.11751 5.64086 5.13478 3.3337 -3.06138 -2.71426
ITEM: TIMESTEP
53300
ITEM: NUMBER OF ATOMS
6
ITEM: BOX BOUNDS pp pp pp
0.0000000000000000e+00 1.0000000000000000e+01
0.0000000000000000e+00 1.0000000000000000e+01
0.0000000000000000e+00 1.0000000000000000e+01
ITEM: ATOMS id type x y z vx vy vz
2 1 4.60399 4.48336 5.10258 -1.93185 4.29791 2.86559
3 2 4.71409 3.84986 6.01326 8.16276 3.20808 -3.23645
5 2 6.17242 5.79975 5.6494 1.73562 -13.4029 -9.40298
4 2 3.82146 4.1725 4.3632 -1.0367 13.0944 12.7837
6 2 5.28517 6.11163 3.96336 -10.8378 -3.00568 2.074
1 1 5.39679 5.52217 4.89848 2.09769 -4.28901 -3.05174
ITEM: TIMESTEP
53400
ITEM: NUMBER OF ATOMS
6
ITEM: BOX BOUNDS pp pp pp
0.0000000000000000e+00 1.0000000000000000e+01
0.0000000000000000e+00 1.0000000000000000e+01
0.0000000000000000e+00 1.0000000000000000e+01
ITEM: ATOMS id type x y z vx vy vz
2 1 4.52699 4.75729 5.40073 1.11784 3.60011 2.91775
3 2 4.64989 3.80558 5.85657 3.13308 6.39648 -10.9306
5 2 6.34013 4.65923 4.3747 -9.84088 -10.6257 -11.8829
4 2 3.66197 5.33977 5.61605 9.7536 13.1157 5.47926
6 2 5.33724 6.18594 4.11934 5.68151 -5.10035 6.05444
1 1 5.47411 5.24347 4.60222 -1.85024 -3.91784 -1.97115
ITEM: TIMESTEP
53500
ITEM: NUMBER OF ATOMS
6
ITEM: BOX BOUNDS pp pp pp
0.0000000000000000e+00 1.0000000000000000e+01
0.0000000000000000e+00 1.0000000000000000e+01
0.0000000000000000e+00 1.0000000000000000e+01
ITEM: ATOMS id type x y z vx vy vz
2 1 4.69042 5.0438 5.58459 2.92135 3.23504 -1.11682
3 2 3.8895 4.31274 5.83624 -13.078 1.30791 5.9777
5 2 5.01078 4.18627 3.68419 -22.3018 1.51209 -6.52202
4 2 5.00534 5.82219 6.29806 16.6886 3.77869 7.1289
6 2 6.1065 5.67882 4.14075 10.4253 -1.65986 -1.95331
1 1 5.30877 4.95616 4.41898 -2.22768 -3.64951 0.728159
ITEM: TIMESTEP
53600
ITEM: NUMBER OF ATOMS
6
ITEM: BOX BOUNDS pp pp pp
0.0000000000000000e+00 1.0000000000000000e+01
0.0000000000000000e+00 1.0000000000000000e+01
0.0000000000000000e+00 1.0000000000000000e+01
ITEM: ATOMS id type x y z vx vy vz
2 1 4.96362 5.28092 5.59769 3.67883 3.20436 0.271485
3 2 4.10142 5.87589 5.88442 22.6866 3.93493 -2.91761
5 2 4.19489 4.81844 3.70923 7.98192 9.31476 6.59404
4 2 5.79894 5.18087 6.30415 -9.90124 -2.92639 -6.26865
6 2 5.90129 4.1168 4.15378 -20.6749 -3.66309 6.82865
1 1 5.03687 4.71972 4.39813 -3.68658 -3.76328 -0.627007
ITEM: TIMESTEP
53700
ITEM: NUMBER OF ATOMS
6
ITEM: BOX BOUNDS pp pp pp
0.0000000000000000e+00 1.0000000000000000e+01
0.0000000000000000e+00 1.0000000000000000e+01
0.0000000000000000e+00 1.0000000000000000e+01
ITEM: ATOMS id type x y z vx vy vz
2 1 5.3342 5.37598 5.43351 3.08327 0.182583 -1.97282
3 2 5.54747 6.41308 5.2099 17.5937 5.83313 -13.0105
5 2 4.30044 5.06465 3.65798 -7.81717 -2.05475 -13.4153
4 2 5.69535 4.95078 6.34814 6.27226 -5.30117 10.6767
6 2 4.42727 3.59086 4.805 -24.0566 -6.1594 8.18415
1 1 4.66847 4.62236 4.56488 -2.41125 0.462108 2.60767
ITEM: TIMESTEP
53800
ITEM: NUMBER OF ATOMS
6
ITEM: BOX BOUNDS pp pp pp
0.0000000000000000e+00 1.0000000000000000e+01
0.0000000000000000e+00 1.0000000000000000e+01
0.0000000000000000e+00 1.0000000000000000e+01
ITEM: ATOMS id type x y z vx vy vz
2 1 5.60097 5.21721 5.1814 3.493 -0.62234 -2.03974
3 2 6.42294 5.24755 4.43379 6.24976 -14.268 2.41388
5 2 4.21118 4.39565 3.78726 -8.37585 -2.27742 12.7827
4 2 5.75932 5.58821 6.22481 8.3448 3.97724 -11.8403
6 2 3.55717 4.76292 5.53785 -5.18647 19.3052 -3.66165
1 1 4.40338 4.78323 4.82012 -3.57962 0.056962 2.06536
ITEM: TIMESTEP
53900
ITEM: NUMBER OF ATOMS
6
ITEM: BOX BOUNDS pp pp pp
0.0000000000000000e+00 1.0000000000000000e+01
0.0000000000000000e+00 1.0000000000000000e+01
0.0000000000000000e+00 1.0000000000000000e+01
ITEM: ATOMS id type x y z vx vy vz
2 1 5.66291 4.98016 4.93188 1.75018 -2.91964 -2.31717
3 2 6.17105 4.05437 4.77402 1.51295 4.24177 4.88739
5 2 3.77287 4.11652 5.10573 -7.33862 4.22671 16.9724
4 2 6.24774 5.87289 4.91903 12.5604 -10.9136 -20.9906
6 2 3.8321 5.95088 5.21373 2.68596 0.082742 -6.8338
1 1 4.33529 5.02025 5.06722 -2.54077 3.11789 2.81773
ITEM: TIMESTEP
54000
ITEM: NUMBER OF ATOMS
6
ITEM: BOX BOUNDS pp pp pp
0.0000000000000000e+00 1.0000000000000000e+01
0.0000000000000000e+00 1.0000000000000000e+01
0.0000000000000000e+00 1.0000000000000000e+01
ITEM: ATOMS id type x y z vx vy vz
2 1 5.50114 4.67043 4.71752 -0.642032 -3.22276 -1.71752
3 2 6.09298 3.90439 5.26011 10.6398 -12.3819 3.28028
5 2 4.21206 5.13838 6.33657 3.52271 20.8546 12.3626
4 2 5.82015 4.87266 3.67796 -8.4967 -17.07 -16.0826
6 2 3.9205 6.10224 4.72477 -11.247 13.7878 1.84279
1 1 4.49523 5.32806 5.28267 1.11041 2.78717 1.59977
ITEM: TIMESTEP
54100
ITEM: NUMBER OF ATOMS
6
ITEM: BOX BOUNDS pp pp pp
0.0000000000000000e+00 1.0000000000000000e+01
0.0000000000000000e+00 1.0000000000000000e+01
0.0000000000000000e+00 1.0000000000000000e+01
ITEM: ATOMS id type x y z vx vy vz
2 1 5.17618 4.41237 4.73046 -1.76003 -4.76157 -0.0226726
4 2 4.50663 3.8747 4.04768 -0.802818 -5.77811 17.3439
6 2 3.84211 6.01571 5.11894 18.4735 5.07687 14.7858
3 2 6.16973 3.99676 4.89213 -15.224 -1.30874 -16.3471
5 2 5.47164 6.15916 5.93936 -0.294122 5.43782 -18.1366
1 1 4.82485 5.58371 5.26984 1.5794 4.4739 0.22022
ITEM: TIMESTEP
54200
ITEM: NUMBER OF ATOMS
6
ITEM: BOX BOUNDS pp pp pp
0.0000000000000000e+00 1.0000000000000000e+01
0.0000000000000000e+00 1.0000000000000000e+01
0.0000000000000000e+00 1.0000000000000000e+01
ITEM: ATOMS id type x y z vx vy vz
2 1 4.86084 4.35435 4.88855 -2.07412 -0.120247 2.91326
4 2 4.1461 3.79888 5.46359 -3.96366 -11.9471 8.57799
6 2 4.66789 6.21095 5.91333 10.9279 10.5867 14.653
3 2 5.33851 3.78665 4.09343 -21.295 -14.5271 -14.5825
5 2 5.85653 6.19752 4.53422 7.85583 8.0022 -15.2351
1 1 5.1386 5.64612 5.11121 2.6175 0.781974 -2.36051
ITEM: TIMESTEP
54300
ITEM: NUMBER OF ATOMS
6
ITEM: BOX BOUNDS pp pp pp
0.0000000000000000e+00 1.0000000000000000e+01
0.0000000000000000e+00 1.0000000000000000e+01
0.0000000000000000e+00 1.0000000000000000e+01
ITEM: ATOMS id type x y z vx vy vz
2 1 4.58393 4.49515 5.12809 -2.7156 0.555694 3.10245
4 2 4.65545 3.84815 6.04174 0.263729 -0.523288 -4.22758
6 2 6.20361 5.83084 5.59011 10.5277 -4.60553 -16.8494
3 2 3.79981 4.13996 4.42925 -13.5281 8.21794 16.3897
5 2 5.34399 6.12754 3.93517 4.70834 0.218105 6.13609
1 1 5.41603 5.5093 4.87237 2.55014 -0.833237 -3.22403
ITEM: TIMESTEP
54400
ITEM: NUMBER OF ATOMS
6
ITEM: BOX BOUNDS pp pp pp
0.0000000000000000e+00 1.0000000000000000e+01
0.0000000000000000e+00 1.0000000000000000e+01
0.0000000000000000e+00 1.0000000000000000e+01
ITEM: ATOMS id type x y z vx vy vz
2 1 4.52816 4.78111 5.43195 0.764126 3.46142 4.0865
4 2 4.58127 3.83169 5.91409 -10.03 -1.56537 -4.26346
6 2 6.36763 4.68037 4.34334 -10.6332 -2.03513 -11.4113
3 2 3.6348 5.34184 5.63644 10.3322 5.83864 8.43715
5 2 5.41546 6.14826 4.05849 13.2594 -1.82049 0.776232
1 1 5.47211 5.21868 4.57219 -1.00988 -3.49647 -3.54426
ITEM: TIMESTEP
54500
ITEM: NUMBER OF ATOMS
6
ITEM: BOX BOUNDS pp pp pp
0.0000000000000000e+00 1.0000000000000000e+01
0.0000000000000000e+00 1.0000000000000000e+01
0.0000000000000000e+00 1.0000000000000000e+01
ITEM: ATOMS id type x y z vx vy vz
2 1 4.70467 5.06877 5.60002 3.62655 1.09861 -0.666294
4 2 3.90795 4.38462 5.96434 -12.823 14.4756 5.56416
6 2 5.01587 4.15681 3.65548 -19.4208 -8.66564 -8.64179
3 2 5.00203 5.83941 6.34143 10.9654 6.13507 11.1841
5 2 6.08416 5.61861 4.02791 12.2939 -7.16663 -2.64444
1 1 5.29469 4.93124 4.40103 -2.87258 -1.49962 0.207916
ITEM: TIMESTEP
54600
ITEM: NUMBER OF ATOMS
6
ITEM: BOX BOUNDS pp pp pp
0.0000000000000000e+00 1.0000000000000000e+01
0.0000000000000000e+00 1.0000000000000000e+01
0.0000000000000000e+00 1.0000000000000000e+01
ITEM: ATOMS id type x y z vx vy vz
2 1 4.99537 5.30578 5.5987 4.09332 2.30985 -0.625189
4 2 4.1587 5.89792 5.98038 18.1542 6.30513 -7.00774
6 2 4.18087 4.78659 3.68709 13.3563 7.68324 9.47172
3 2 5.78966 5.20971 6.33799 -10.2553 -6.99978 -12.1496
5 2 5.8591 4.10548 4.04639 -17.8387 -4.27926 7.76433
1 1 5.0058 4.69421 4.3971 -4.38002 -2.53722 0.786426
ITEM: TIMESTEP
54700
ITEM: NUMBER OF ATOMS
6
ITEM: BOX BOUNDS pp pp pp
0.0000000000000000e+00 1.0000000000000000e+01
0.0000000000000000e+00 1.0000000000000000e+01
0.0000000000000000e+00 1.0000000000000000e+01
ITEM: ATOMS id type x y z vx vy vz
2 1 5.36719 5.38181 5.42276 3.17111 -2.04597 -4.71308
4 2 5.60385 6.41275 5.22582 8.22554 5.66462 -15.4829
6 2 4.20998 5.00306 3.65633 1.10459 1.93543 -13.4809
3 2 5.75576 4.98619 6.3578 -3.11842 -8.48182 10.7349
5 2 4.38383 3.59284 4.77291 -14.471 -4.44765 11.0267
1 1 4.63692 4.61859 4.57631 -2.47799 2.49321 5.31749
ITEM: TIMESTEP
54800
ITEM: NUMBER OF ATOMS
6
ITEM: BOX BOUNDS pp pp pp
0.0000000000000000e+00 1.0000000000000000e+01
0.0000000000000000e+00 1.0000000000000000e+01
0.0000000000000000e+00 1.0000000000000000e+01
ITEM: ATOMS id type x y z vx vy vz
2 1 5.61631 5.2146 5.1618 -0.0719175 -2.92775 -3.14628
4 2 6.45424 5.19262 4.41637 -5.82407 -14.4432 -0.214507
6 2 4.10287 4.45147 3.8174 6.33229 -4.09716 9.36994
3 2 5.88788 5.55141 6.18315 -1.49298 3.92431 -11.3265
5 2 3.52212 4.80322 5.56238 7.26943 22.4362 4.33782
1 1 4.38665 4.78547 4.84009 -0.455492 2.27148 2.96445
ITEM: TIMESTEP
54900
ITEM: NUMBER OF ATOMS
6
ITEM: BOX BOUNDS pp pp pp
0.0000000000000000e+00 1.0000000000000000e+01