ITEM: TIMESTEP
49600
ITEM: NUMBER OF ATOMS
6
ITEM: BOX BOUNDS pp pp pp
0.0000000000000000e+00 1.0000000000000000e+01
0.0000000000000000e+00 1.0000000000000000e+01
0.0000000000000000e+00 1.0000000000000000e+01
ITEM: ATOMS id type x y z vx vy vz
5 2 4.41358 4.88423 3.58623 7.02334 6.06771 13.3793
1 1 5.14013 4.77774 4.39268 -3.26166 -2.55534 -0.325248
6 2 6.06184 4.22626 4.18895 -18.7493 -9.94172 4.85317
3 2 3.92904 5.77087 5.78672 19.7186 9.60149 -7.12883
2 1 4.86034 5.22508 5.60996 2.99921 2.21919 1.04253
4 2 5.59224 5.08469 6.40843 -4.8653 -1.72188 -19.6508
ITEM: TIMESTEP
49700
ITEM: NUMBER OF ATOMS
6
ITEM: BOX BOUNDS pp pp pp
0.0000000000000000e+00 1.0000000000000000e+01
0.0000000000000000e+00 1.0000000000000000e+01
0.0000000000000000e+00 1.0000000000000000e+01
ITEM: ATOMS id type x y z vx vy vz
5 2 4.52575 5.07494 3.54832 -2.26012 8.03847 -8.85571
1 1 4.7644 4.62704 4.50456 -2.45346 -0.407417 2.06379
6 2 4.60699 3.57419 4.65991 -20.5568 -4.92937 16.8842
3 2 5.37769 6.42339 5.35412 20.9317 6.71684 -6.98321
2 1 5.23868 5.3733 5.49454 2.06736 -0.174573 -3.09316
4 2 5.45521 4.92304 6.45025 6.48588 -2.8909 11.2208
ITEM: TIMESTEP
49800
ITEM: NUMBER OF ATOMS
6
ITEM: BOX BOUNDS pp pp pp
0.0000000000000000e+00 1.0000000000000000e+01
0.0000000000000000e+00 1.0000000000000000e+01
0.0000000000000000e+00 1.0000000000000000e+01
ITEM: ATOMS id type x y z vx vy vz
5 2 4.52343 4.3584 3.68373 -7.04243 -7.45662 10.7321
1 1 4.46325 4.72665 4.72644 -2.95335 0.798994 1.73837
6 2 3.5383 4.5951 5.34116 -1.89475 17.1067 -1.35545
3 2 6.47014 5.42915 4.67143 1.34429 -13.3752 -3.59815
2 1 5.53349 5.26968 5.27302 3.15834 -1.15141 -1.52302
4 2 5.50939 5.66062 6.31189 5.15033 7.92451 -8.34463
ITEM: TIMESTEP
49900
ITEM: NUMBER OF ATOMS
6
ITEM: BOX BOUNDS pp pp pp
0.0000000000000000e+00 1.0000000000000000e+01
0.0000000000000000e+00 1.0000000000000000e+01
0.0000000000000000e+00 1.0000000000000000e+01
ITEM: ATOMS id type x y z vx vy vz
5 2 3.91419 3.94343 4.92471 -9.54973 8.63866 20.407
1 1 4.34182 4.92346 4.98888 -1.64327 2.62896 2.00143
6 2 3.6887 5.75582 5.0623 -1.73221 0.21504 -4.99811
3 2 6.29675 4.2301 4.93607 -3.72765 -1.40701 -1.14961
2 1 5.66023 5.07721 5.01003 2.78397 -2.52702 -1.42511
4 2 6.07831 6.06233 5.09179 1.41687 -8.66141 -21.1267
ITEM: TIMESTEP
50000
ITEM: NUMBER OF ATOMS
6
ITEM: BOX BOUNDS pp pp pp
0.0000000000000000e+00 1.0000000000000000e+01
0.0000000000000000e+00 1.0000000000000000e+01
0.0000000000000000e+00 1.0000000000000000e+01
ITEM: ATOMS id type x y z vx vy vz
2 1 5.56916 4.76773 4.75622 -1.32107 -3.40774 -1.1804
6 2 3.78381 5.90104 4.63682 -8.77183 5.40448 -3.15689
4 2 5.94165 5.10123 3.77319 3.19786 -15.5182 -20.5044
5 2 4.06207 4.93346 6.24263 3.49504 12.5339 20.1796
3 2 6.20308 4.09932 5.36755 10.9314 -7.46046 -1.58863
1 1 4.43182 5.22929 5.24223 0.578162 3.83072 1.6059
ITEM: TIMESTEP
50100
ITEM: NUMBER OF ATOMS
6
ITEM: BOX BOUNDS pp pp pp
0.0000000000000000e+00 1.0000000000000000e+01
0.0000000000000000e+00 1.0000000000000000e+01
0.0000000000000000e+00 1.0000000000000000e+01
ITEM: ATOMS id type x y z vx vy vz
2 1 5.29367 4.48085 4.71408 -2.40147 -5.49079 -0.224343
6 2 3.67194 5.76954 5.04432 10.0603 3.36372 16.8173
4 2 4.80003 3.87805 3.94692 3.49545 -2.54352 16.5558
5 2 5.23619 6.12162 6.02891 -4.11536 2.18104 -18.6953
3 2 6.32873 4.20822 4.9436 -8.1152 -1.64017 -19.6696
1 1 4.70343 5.52101 5.28911 2.29026 5.37657 0.643258
ITEM: TIMESTEP
50200
ITEM: NUMBER OF ATOMS
6
ITEM: BOX BOUNDS pp pp pp
0.0000000000000000e+00 1.0000000000000000e+01
0.0000000000000000e+00 1.0000000000000000e+01
0.0000000000000000e+00 1.0000000000000000e+01
ITEM: ATOMS id type x y z vx vy vz
2 1 4.97718 4.36141 4.8116 -2.35823 -1.73822 1.65036
6 2 4.38489 6.01836 5.9659 13.4619 18.5366 13.0255
4 2 4.32449 3.65214 5.29803 -6.82275 -9.78282 12.783
5 2 5.66205 6.36486 4.70768 3.87441 17.7487 -9.38281
3 2 5.6233 3.97659 4.04297 -13.4639 -10.2067 -17.2168
1 1 5.02347 5.63755 5.18732 2.60582 0.370675 -1.58396
ITEM: TIMESTEP
50300
ITEM: NUMBER OF ATOMS
6
ITEM: BOX BOUNDS pp pp pp
0.0000000000000000e+00 1.0000000000000000e+01
0.0000000000000000e+00 1.0000000000000000e+01
0.0000000000000000e+00 1.0000000000000000e+01
ITEM: ATOMS id type x y z vx vy vz
2 1 4.65858 4.42795 5.02729 -3.69705 0.51282 3.55246
6 2 6.01019 5.92315 5.80267 9.2978 -0.535623 -12.7158
4 2 4.75194 3.72625 5.88516 -2.9514 -7.38769 -8.01793
5 2 5.26524 6.28189 4.12245 -0.164675 3.04623 7.21381
3 2 4.01902 4.09187 4.17076 -14.2499 -1.40131 15.8579
1 1 5.33772 5.57007 4.97445 4.37413 0.0140638 -3.74866
ITEM: TIMESTEP
50400
ITEM: NUMBER OF ATOMS
6
ITEM: BOX BOUNDS pp pp pp
0.0000000000000000e+00 1.0000000000000000e+01
0.0000000000000000e+00 1.0000000000000000e+01
0.0000000000000000e+00 1.0000000000000000e+01
ITEM: ATOMS id type x y z vx vy vz
2 1 4.5189 4.66915 5.32985 -0.35423 2.79091 4.64518
6 2 6.44429 4.91929 4.49204 -4.75524 -3.92383 -11.4803
4 2 4.67119 3.69073 5.74808 -17.0469 0.924797 -6.24809
5 2 5.30432 6.30331 4.25184 12.7647 -2.25485 1.94271
3 2 3.54174 5.05862 5.50474 4.8816 -0.769988 15.5206
1 1 5.48453 5.33317 4.67058 0.702987 -2.28538 -4.62294
ITEM: TIMESTEP
50500
ITEM: NUMBER OF ATOMS
6
ITEM: BOX BOUNDS pp pp pp
0.0000000000000000e+00 1.0000000000000000e+01
0.0000000000000000e+00 1.0000000000000000e+01
0.0000000000000000e+00 1.0000000000000000e+01
ITEM: ATOMS id type x y z vx vy vz
2 1 4.61969 4.95368 5.5503 1.99292 3.02178 1.3577
6 2 5.30382 4.33362 3.59626 -7.85248 1.37317 -16.562
4 2 3.89869 4.13395 5.72524 -17.25 4.90912 4.38446
5 2 6.09146 5.8795 4.27357 15.6574 -2.18615 -13.0245
3 2 4.70228 5.66181 6.40138 13.0299 2.91638 11.8295
1 1 5.38083 5.04554 4.45015 -2.29376 -3.61027 -0.23547
ITEM: TIMESTEP
50600
ITEM: NUMBER OF ATOMS
6
ITEM: BOX BOUNDS pp pp pp
0.0000000000000000e+00 1.0000000000000000e+01
0.0000000000000000e+00 1.0000000000000000e+01
0.0000000000000000e+00 1.0000000000000000e+01
ITEM: ATOMS id type x y z vx vy vz
2 1 4.85788 5.22816 5.62072 2.61769 4.01502 0.451016
6 2 4.43266 4.79199 3.5481 7.63377 9.66343 7.16923
4 2 3.88962 5.66303 5.88208 22.6835 8.57566 2.51348
5 2 6.10287 4.3317 4.09946 -23.4591 -2.86577 0.0251094
3 2 5.58137 5.17007 6.43472 -8.00107 -6.78133 -4.75578
1 1 5.14178 4.77544 4.38242 -2.52178 -4.73606 -0.866592
ITEM: TIMESTEP
50700
ITEM: NUMBER OF ATOMS
6
ITEM: BOX BOUNDS pp pp pp
0.0000000000000000e+00 1.0000000000000000e+01
0.0000000000000000e+00 1.0000000000000000e+01
0.0000000000000000e+00 1.0000000000000000e+01
ITEM: ATOMS id type x y z vx vy vz
2 1 5.22755 5.38062 5.51083 3.30024 -1.28452 -3.52633
6 2 4.41331 5.03923 3.56814 -0.0139862 4.04338 -8.27809
4 2 5.3329 6.45885 5.44373 18.0718 11.924 -4.19534
5 2 4.66459 3.54594 4.56769 -15.3309 -11.839 12.3692
3 2 5.56805 4.98309 6.45694 -0.0240489 2.03138 9.76553
1 1 4.77442 4.61707 4.48625 -3.52707 0.76759 2.71555
ITEM: TIMESTEP
50800
ITEM: NUMBER OF ATOMS
6
ITEM: BOX BOUNDS pp pp pp
0.0000000000000000e+00 1.0000000000000000e+01
0.0000000000000000e+00 1.0000000000000000e+01
0.0000000000000000e+00 1.0000000000000000e+01
ITEM: ATOMS id type x y z vx vy vz
2 1 5.54124 5.28797 5.27511 2.00612 -0.829212 -2.50331
6 2 4.39804 4.45192 3.63139 -6.05935 -4.21826 7.15266
4 2 6.47293 5.52044 4.71212 -3.7389 -20.1142 -4.23937
5 2 3.53548 4.4807 5.30756 -2.51385 21.4217 0.482703
3 2 5.60601 5.57522 6.35683 -1.12121 3.62382 -8.75058
1 1 4.45791 4.70962 4.72438 -0.87879 0.769371 2.95267
ITEM: TIMESTEP
50900
ITEM: NUMBER OF ATOMS
6
ITEM: BOX BOUNDS pp pp pp
0.0000000000000000e+00 1.0000000000000000e+01
0.0000000000000000e+00 1.0000000000000000e+01
0.0000000000000000e+00 1.0000000000000000e+01
ITEM: ATOMS id type x y z vx vy vz
2 1 5.6752 5.08276 5.02039 -0.0893806 -2.26331 -3.05701
6 2 3.85699 3.97624 4.82319 2.59431 4.81744 14.4489
4 2 6.33843 4.2567 4.84457 -11.2979 -9.05277 4.47229
5 2 3.63198 5.71814 5.16554 11.0235 7.17846 -11.2798
3 2 6.13051 6.02901 5.17516 -1.65097 -2.72856 -14.7
1 1 4.32853 4.91887 4.97905 0.0332474 2.24531 3.64938
ITEM: TIMESTEP
51000
ITEM: NUMBER OF ATOMS
6
ITEM: BOX BOUNDS pp pp pp
0.0000000000000000e+00 1.0000000000000000e+01
0.0000000000000000e+00 1.0000000000000000e+01
0.0000000000000000e+00 1.0000000000000000e+01
ITEM: ATOMS id type x y z vx vy vz
2 1 5.58758 4.77896 4.76317 -4.04088 -1.28537 -0.840248
5 2 3.81654 5.98951 4.71195 2.99219 7.90009 -16.1417
3 2 6.01943 5.13088 3.79423 -8.31224 -10.668 -15.7374
6 2 4.00036 4.87969 6.21298 14.906 7.6655 18.3627
4 2 6.1988 4.02209 5.2916 0.624239 -9.54495 8.12566
1 1 4.40968 5.21915 5.23607 3.18404 1.67538 1.29264
ITEM: TIMESTEP
51100
ITEM: NUMBER OF ATOMS
6
ITEM: BOX BOUNDS pp pp pp
0.0000000000000000e+00 1.0000000000000000e+01
0.0000000000000000e+00 1.0000000000000000e+01
0.0000000000000000e+00 1.0000000000000000e+01
ITEM: ATOMS id type x y z vx vy vz
2 1 5.3024 4.47899 4.70844 -2.05031 -2.3653 0.0237686
5 2 3.69302 5.84572 4.99565 15.8698 -6.89311 6.28349
3 2 4.85255 3.93908 3.87586 -16.9109 3.69722 18.9419
6 2 5.17529 6.06169 6.11472 15.6398 0.879527 -22.2394
4 2 6.30568 4.13836 4.97829 -16.7897 12.2443 -1.72919
1 1 4.69558 5.52225 5.29469 2.23418 1.53215 -0.129242
ITEM: TIMESTEP
51200
ITEM: NUMBER OF ATOMS
6
ITEM: BOX BOUNDS pp pp pp
0.0000000000000000e+00 1.0000000000000000e+01
0.0000000000000000e+00 1.0000000000000000e+01
0.0000000000000000e+00 1.0000000000000000e+01
ITEM: ATOMS id type x y z vx vy vz
2 1 4.98718 4.35433 4.81925 -2.66826 1.29055 2.80204
5 2 4.33516 6.04338 5.91945 3.2679 0.293696 17.4092
3 2 4.23412 3.68757 5.2074 -12.4617 8.29422 19.5101
6 2 5.74774 6.33189 4.79846 5.85146 -2.97274 -20.8604
4 2 5.68404 3.97526 4.08315 -0.331046 2.84669 -20.042
1 1 5.01294 5.64244 5.18019 2.97653 -2.00067 -2.46778
ITEM: TIMESTEP
51300
ITEM: NUMBER OF ATOMS
6
ITEM: BOX BOUNDS pp pp pp
0.0000000000000000e+00 1.0000000000000000e+01
0.0000000000000000e+00 1.0000000000000000e+01
0.0000000000000000e+00 1.0000000000000000e+01
ITEM: ATOMS id type x y z vx vy vz
2 1 4.66908 4.42648 5.01858 -1.27424 1.80345 2.22561
5 2 5.91941 5.93125 5.85361 9.73584 -20.5647 -8.55623
3 2 4.69548 3.78034 5.93487 2.65371 7.70182 1.85784
6 2 5.30962 6.23008 4.075 -8.51978 -10.2763 -6.32751
4 2 4.10858 4.04845 4.13562 -11.6417 15.7555 13.6792
1 1 5.32834 5.57432 4.98164 1.92646 -1.18382 -2.28044
ITEM: TIMESTEP
51400
ITEM: NUMBER OF ATOMS
6
ITEM: BOX BOUNDS pp pp pp
0.0000000000000000e+00 1.0000000000000000e+01
0.0000000000000000e+00 1.0000000000000000e+01
0.0000000000000000e+00 1.0000000000000000e+01
ITEM: ATOMS id type x y z vx vy vz
2 1 4.5274 4.67191 5.32787 0.313676 3.28725 3.03778
5 2 6.47658 4.94091 4.62589 -8.51194 -14.9191 -10.0083
3 2 4.71212 3.72785 5.76869 2.94215 3.56944 -8.40979
6 2 5.25435 6.27474 4.23886 -1.48957 -5.86696 5.58491
4 2 3.5172 5.027 5.35638 8.36687 16.7614 8.53039
1 1 5.47613 5.33053 4.67313 -0.423403 -3.24905 -2.67669
ITEM: TIMESTEP
51500
ITEM: NUMBER OF ATOMS
6
ITEM: BOX BOUNDS pp pp pp
0.0000000000000000e+00 1.0000000000000000e+01
0.0000000000000000e+00 1.0000000000000000e+01
0.0000000000000000e+00 1.0000000000000000e+01
ITEM: ATOMS id type x y z vx vy vz
2 1 4.63006 4.95117 5.54386 3.60535 2.18394 1.18948
5 2 5.36199 4.25808 3.69468 -13.2997 -9.12335 -7.97936
3 2 3.98431 4.0546 5.70073 -15.3093 1.43636 -8.08958
6 2 6.02469 5.9309 4.28687 12.46 -4.11056 -0.2163
4 2 4.64259 5.76208 6.29089 15.8343 14.9278 5.93788
1 1 5.369 5.04832 4.45854 -3.57894 -2.44663 -0.321124
ITEM: TIMESTEP
51600
ITEM: NUMBER OF ATOMS
6
ITEM: BOX BOUNDS pp pp pp
0.0000000000000000e+00 1.0000000000000000e+01
0.0000000000000000e+00 1.0000000000000000e+01
0.0000000000000000e+00 1.0000000000000000e+01
ITEM: ATOMS id type x y z vx vy vz
2 1 4.86024 5.22282 5.60505 3.32532 2.03647 0.470178
5 2 4.37945 4.77049 3.61135 4.09497 6.31543 13.6336
3 2 3.84201 5.51152 5.85509 20.3222 16.3972 -1.32637
6 2 6.14301 4.46585 4.13712 -14.6307 -10.5323 7.20972
4 2 5.63792 5.21977 6.37908 -9.50143 -4.64691 -12.18
1 1 5.13976 4.77986 4.39656 -3.34924 -2.66867 -1.0859
ITEM: TIMESTEP
51700
ITEM: NUMBER OF ATOMS
6
ITEM: BOX BOUNDS pp pp pp
0.0000000000000000e+00 1.0000000000000000e+01
0.0000000000000000e+00 1.0000000000000000e+01
0.0000000000000000e+00 1.0000000000000000e+01
ITEM: ATOMS id type x y z vx vy vz
2 1 5.22151 5.37276 5.49577 4.48219 -0.320979 -3.60794
5 2 4.38989 5.10506 3.61611 -3.49311 5.31163 -14.3296
3 2 5.1752 6.44637 5.45311 14.2961 8.26139 -6.02989
6 2 4.81899 3.54831 4.57783 -11.492 -8.64345 7.1591
4 2 5.59335 4.92325 6.39726 -1.31801 -1.77521 16.7518
1 1 4.78059 4.62527 4.50066 -4.31376 0.0562649 3.3099
ITEM: TIMESTEP
51800
ITEM: NUMBER OF ATOMS
6
ITEM: BOX BOUNDS pp pp pp
0.0000000000000000e+00 1.0000000000000000e+01
0.0000000000000000e+00 1.0000000000000000e+01
0.0000000000000000e+00 1.0000000000000000e+01
ITEM: ATOMS id type x y z vx vy vz
2 1 5.52701 5.28955 5.26889 3.42909 -2.17433 -2.00189
5 2 4.41723 4.58273 3.62907 -9.53859 -9.88952 13.3522
3 2 6.39313 5.59132 4.63101 5.85498 -11.4773 -2.99452
6 2 3.60061 4.40004 5.35485 -6.48467 11.2351 -3.54604
4 2 5.58069 5.43752 6.37134 0.0723974 10.9842 -10.7087
1 1 4.47389 4.70945 4.73241 -2.58185 2.10279 2.32893
ITEM: TIMESTEP
51900
ITEM: NUMBER OF ATOMS
6
ITEM: BOX BOUNDS pp pp pp
0.0000000000000000e+00 1.0000000000000000e+01
0.0000000000000000e+00 1.0000000000000000e+01
0.0000000000000000e+00 1.0000000000000000e+01
ITEM: ATOMS id type x y z vx vy vz
2 1 5.66151 5.081 5.01367 1.05309 -2.91489 -3.42489
5 2 3.89776 3.99605 4.676 -8.77993 3.43279 11.5916
3 2 6.29603 4.26102 4.77885 0.933686 2.50592 10.1193
6 2 3.68899 5.71821 5.23567 0.56255 2.71349 -11.7889
4 2 6.07963 6.01804 5.32656 13.3131 -5.58901 -16.8112
1 1 4.34185 4.91952 4.98505 -1.55908 2.65782 4.00302
ITEM: TIMESTEP
52000
ITEM: NUMBER OF ATOMS
6
ITEM: BOX BOUNDS pp pp pp
0.0000000000000000e+00 1.0000000000000000e+01
0.0000000000000000e+00 1.0000000000000000e+01
0.0000000000000000e+00 1.0000000000000000e+01
ITEM: ATOMS id type x y z vx vy vz
2 1 5.58396 4.78956 4.76915 -2.93814 -3.6298 -2.4933
6 2 3.88645 6.05848 4.73064 -11.1065 5.66472 -4.97946
4 2 6.04617 5.21447 3.86487 7.99638 -14.485 -15.3053
5 2 3.98236 4.76781 6.14546 -2.63496 10.1921 15.6568
3 2 6.14007 3.96653 5.27313 14.4388 -4.78506 2.66651
1 1 4.41162 5.20979 5.22981 2.20856 3.91624 2.6579
ITEM: TIMESTEP
52100
ITEM: NUMBER OF ATOMS
6
ITEM: BOX BOUNDS pp pp pp
0.0000000000000000e+00 1.0000000000000000e+01
0.0000000000000000e+00 1.0000000000000000e+01
0.0000000000000000e+00 1.0000000000000000e+01
ITEM: ATOMS id type x y z vx vy vz
2 1 5.30918 4.49086 4.69774 -1.80337 -4.63229 -1.14281
6 2 3.7716 5.91997 4.89951 9.82897 6.0839 19.8378
4 2 4.86616 3.99232 3.82395 -2.50471 -5.60605 18.7589
5 2 5.13494 6.00691 6.17361 -1.5099 12.6594 -21.7923
3 2 6.24618 4.08714 5.07282 -9.15745 -0.91417 -13.9315
1 1 4.68944 5.50858 5.30493 2.08392 3.60653 0.901723
ITEM: TIMESTEP
52200
ITEM: NUMBER OF ATOMS
6
ITEM: BOX BOUNDS pp pp pp
0.0000000000000000e+00 1.0000000000000000e+01
0.0000000000000000e+00 1.0000000000000000e+01
0.0000000000000000e+00 1.0000000000000000e+01
ITEM: ATOMS id type x y z vx vy vz
2 1 4.98454 4.35139 4.8153 -3.29645 -0.0885175 0.521732
6 2 4.25309 6.08328 5.81854 6.31672 16.1191 10.7747
4 2 4.18864 3.7021 5.13524 -5.59593 -15.2928 13.3916
5 2 5.80419 6.31906 4.88755 4.11953 16.7165 -20.4086
3 2 5.75644 3.93677 4.1811 -7.82718 -15.5308 -9.97408
1 1 5.01547 5.64512 5.18296 3.54711 -0.0803343 -5.72028e-05
ITEM: TIMESTEP
52300
ITEM: NUMBER OF ATOMS
6
ITEM: BOX BOUNDS pp pp pp
0.0000000000000000e+00 1.0000000000000000e+01
0.0000000000000000e+00 1.0000000000000000e+01
0.0000000000000000e+00 1.0000000000000000e+01
ITEM: ATOMS id type x y z vx vy vz
2 1 4.68012 4.4119 5.01476 -3.45789 -0.0395238 2.86669
6 2 5.8546 5.99543 5.88006 15.0396 -4.20133 -11.3183
4 2 4.57541 3.8055 5.94575 -1.54016 -2.53919 -6.30365
5 2 5.42554 6.18105 4.0404 -4.66398 0.438721 6.29264
3 2 4.15804 3.9808 4.1262 -17.1059 -3.17967 13.6843
1 1 5.31894 5.5912 4.98602 4.15195 0.83521 -3.06433
ITEM: TIMESTEP
52400
ITEM: NUMBER OF ATOMS
6
ITEM: BOX BOUNDS pp pp pp
0.0000000000000000e+00 1.0000000000000000e+01
0.0000000000000000e+00 1.0000000000000000e+01
0.0000000000000000e+00 1.0000000000000000e+01
ITEM: ATOMS id type x y z vx vy vz
2 1 4.51327 4.6567 5.32094 -2.11767 1.51092 3.02158
6 2 6.50158 5.01927 4.68047 -6.46782 -6.2243 -23.7463
4 2 4.70239 3.75794 5.87777 -4.4105 0.958045 1.7222
5 2 5.28662 6.23291 4.11876 10.9486 -0.354947 -2.98065
3 2 3.4857 4.95109 5.3129 5.79825 10.0086 16.135
1 1 5.48892 5.34652 4.68005 1.62518 -1.87911 -2.27723
ITEM: TIMESTEP
52500
ITEM: NUMBER OF ATOMS
6
ITEM: BOX BOUNDS pp pp pp
0.0000000000000000e+00 1.0000000000000000e+01
0.0000000000000000e+00 1.0000000000000000e+01
0.0000000000000000e+00 1.0000000000000000e+01
ITEM: ATOMS id type x y z vx vy vz
2 1 4.62333 4.94667 5.55714 1.36427 2.10845 1.5841
6 2 5.51337 4.22818 3.70357 -14.6824 -8.86046 -17.1526
4 2 4.03681 4.04259 5.80186 -13.0035 2.4296 5.3692
5 2 5.97821 5.94382 4.19074 14.4377 -1.82753 -8.04552
3 2 4.49818 5.79947 6.2631 12.5034 9.53186 10.6717
1 1 5.37464 5.05212 4.44643 -1.30177 -2.21532 -0.815626
ITEM: TIMESTEP
52600
ITEM: NUMBER OF ATOMS
6
ITEM: BOX BOUNDS pp pp pp
0.0000000000000000e+00 1.0000000000000000e+01
0.0000000000000000e+00 1.0000000000000000e+01
0.0000000000000000e+00 1.0000000000000000e+01
ITEM: ATOMS id type x y z vx vy vz
2 1 4.85614 5.21222 5.62439 2.02284 1.87028 1.6921
6 2 4.39266 4.638 3.60149 0.437718 8.81831 13.8225
4 2 3.8376 5.44664 5.94884 19.6885 18.4859 -1.18132
5 2 6.16294 4.51983 4.05688 -18.5565 -13.871 7.60326
3 2 5.60112 5.36959 6.39766 -4.56715 -3.92309 -8.70097
1 1 5.14454 4.78992 4.37535 -1.7713 -2.66837 -2.66083
ITEM: TIMESTEP
52700
ITEM: NUMBER OF ATOMS
6
ITEM: BOX BOUNDS pp pp pp
0.0000000000000000e+00 1.0000000000000000e+01
0.0000000000000000e+00 1.0000000000000000e+01
0.0000000000000000e+00 1.0000000000000000e+01
ITEM: ATOMS id type x y z vx vy vz
2 1 5.21943 5.37985 5.50985 3.06508 -0.674001 -2.29611
6 2 4.32241 5.03687 3.60171 -5.51922 3.16316 -6.87501
4 2 5.09068 6.45212 5.56466 14.19 16.6149 -13.3276
5 2 4.8918 3.54914 4.47287 -15.5656 -15.339 11.4195
3 2 5.68011 4.98101 6.40881 3.16675 -8.58482 8.03804
1 1 4.78203 4.61851 4.48626 -2.75222 1.02192 2.35863
ITEM: TIMESTEP
52800
ITEM: NUMBER OF ATOMS
6
ITEM: BOX BOUNDS pp pp pp
0.0000000000000000e+00 1.0000000000000000e+01
0.0000000000000000e+00 1.0000000000000000e+01
0.0000000000000000e+00 1.0000000000000000e+01
ITEM: ATOMS id type x y z vx vy vz
2 1 5.53872 5.2891 5.27584 3.05562 -2.55543 -2.43052
6 2 4.32219 4.58895 3.6252 1.32959 -6.27869 5.37058
4 2 6.34914 5.75861 4.66444 -4.92258 -17.3046 -8.29113
5 2 3.62787 4.24926 5.30785 0.934889 16.3283 4.63342
3 2 5.66113 5.40175 6.37803 -6.76159 8.49668 -7.29038
1 1 4.46481 4.71099 4.72636 -2.26511 2.45123 2.89859
ITEM: TIMESTEP
52900
ITEM: NUMBER OF ATOMS
6
ITEM: BOX BOUNDS pp pp pp
0.0000000000000000e+00 1.0000000000000000e+01
0.0000000000000000e+00 1.0000000000000000e+01
0.0000000000000000e+00 1.0000000000000000e+01
ITEM: ATOMS id type x y z vx vy vz
2 1 5.66705 5.08229 5.01966 -1.15594 -2.8565 -1.25922
6 2 3.86547 4.04396 4.59064 7.73975 -0.252657 16.5582
4 2 6.34196 4.32435 4.68582 -7.14609 -9.7399 1.83511
5 2 3.64478 5.6673 5.31555 14.5101 14.07 0.181535
3 2 6.13333 5.95037 5.4273 -0.281402 0.974864 -22.6944
1 1 4.33436 4.91886 4.97887 -0.0879566 2.43251 1.60494
ITEM: TIMESTEP
53000
ITEM: NUMBER OF ATOMS
6
ITEM: BOX BOUNDS pp pp pp
0.0000000000000000e+00 1.0000000000000000e+01
0.0000000000000000e+00 1.0000000000000000e+01
0.0000000000000000e+00 1.0000000000000000e+01
ITEM: ATOMS id type x y z vx vy vz
2 1 5.5848 4.78603 4.76926 -4.80843 -2.67988 -1.18719
5 2 3.89045 6.07087 4.77182 2.17209 6.79713 -11.272
3 2 6.1404 5.30424 3.95036 -7.22625 -3.24018 -18.5845
6 2 3.88307 4.69202 6.06171 6.94517 0.760742 16.8617
4 2 6.14947 3.94535 5.21771 -2.65427 -3.49671 13.7939
1 1 4.41008 5.21288 5.23075 4.87249 2.61098 1.12013
ITEM: TIMESTEP
53100
ITEM: NUMBER OF ATOMS
6
ITEM: BOX BOUNDS pp pp pp
0.0000000000000000e+00 1.0000000000000000e+01
0.0000000000000000e+00 1.0000000000000000e+01
0.0000000000000000e+00 1.0000000000000000e+01
ITEM: ATOMS id type x y z vx vy vz
2 1 5.30895 4.49305 4.69634 -4.30841 -3.02392 1.43292
5 2 3.79683 5.9785 4.88264 10.7666 -10.8912 8.83955
3 2 4.94543 4.0806 3.76355 -14.1287 7.51529 18.6652
6 2 5.04718 5.93026 6.2385 10.9823 -2.59838 -18.289
4 2 6.21617 4.05023 5.11645 -8.51517 17.8108 -5.85651
1 1 4.69078 5.50359 5.30371 4.38352 2.03059 -1.71483
ITEM: TIMESTEP
53200
ITEM: NUMBER OF ATOMS
6
ITEM: BOX BOUNDS pp pp pp
0.0000000000000000e+00 1.0000000000000000e+01
0.0000000000000000e+00 1.0000000000000000e+01
0.0000000000000000e+00 1.0000000000000000e+01
ITEM: ATOMS id type x y z vx vy vz
2 1 4.98401 4.36093 4.80878 -3.55858 3.30516 3.26061
5 2 4.18382 6.09048 5.69932 -5.001 -3.72628 12.4086
3 2 4.14221 3.73194 5.07821 -10.7416 -0.730961 17.1413
6 2 5.85032 6.28398 4.94871 10.895 -3.59781 -21.506
4 2 5.81691 3.91443 4.29331 1.97303 -2.53363 -16.723
1 1 5.01675 5.63729 5.18973 3.79982 -2.41655 -2.53225
ITEM: TIMESTEP
53300
ITEM: NUMBER OF ATOMS
6
ITEM: BOX BOUNDS pp pp pp
0.0000000000000000e+00 1.0000000000000000e+01
0.0000000000000000e+00 1.0000000000000000e+01
0.0000000000000000e+00 1.0000000000000000e+01
ITEM: ATOMS id type x y z vx vy vz
2 1 4.68378 4.42191 5.0123 -2.84317 3.54689 2.38619
5 2 5.7082 6.03576 5.92752 6.51872 -12.3267 -8.7985
3 2 4.56058 3.85706 5.96505 10.0515 4.89441 0.444849
6 2 5.45336 6.104 4.01676 -12.2695 -5.31467 -2.53508
4 2 4.28661 3.93743 4.08455 -7.00199 12.1251 12.4683
1 1 5.31569 5.58357 4.98836 3.06986 -3.49469 -2.51875
ITEM: TIMESTEP
53400
ITEM: NUMBER OF ATOMS
6
ITEM: BOX BOUNDS pp pp pp
0.0000000000000000e+00 1.0000000000000000e+01
0.0000000000000000e+00 1.0000000000000000e+01
0.0000000000000000e+00 1.0000000000000000e+01
ITEM: ATOMS id type x y z vx vy vz
2 1 4.52006 4.65353 5.30458 0.060066 3.70409 3.30499
5 2 6.50221 5.04637 4.78542 -2.21306 -12.6794 -13.474
3 2 4.76981 3.82353 5.91811 6.65129 5.95703 -9.40146
6 2 5.22767 6.1629 4.05706 2.47418 -2.4677 6.7509
4 2 3.50212 4.95131 5.20743 3.11796 14.5568 6.75209
1 1 5.47999 5.34777 4.69825 -0.901817 -4.15446 -2.51845
ITEM: TIMESTEP
53500
ITEM: NUMBER OF ATOMS
6
ITEM: BOX BOUNDS pp pp pp
0.0000000000000000e+00 1.0000000000000000e+01
0.0000000000000000e+00 1.0000000000000000e+01
0.0000000000000000e+00 1.0000000000000000e+01
ITEM: ATOMS id type x y z vx vy vz
2 1 4.61917 4.95238 5.54046 2.57368 3.40758 -0.462305
5 2 5.53448 4.17189 3.80571 -21.2656 -6.9624 -9.94367
3 2 4.16666 3.96887 5.80537 -10.1332 -4.66023 5.33164
6 2 5.83857 6.01869 4.17213 7.63922 3.4459 -1.52666
4 2 4.48058 5.84104 6.17822 14.1755 9.49039 9.21337
1 1 5.37933 5.04754 4.46292 -1.76939 -3.51782 0.204278
ITEM: TIMESTEP
53600
ITEM: NUMBER OF ATOMS
6
ITEM: BOX BOUNDS pp pp pp
0.0000000000000000e+00 1.0000000000000000e+01
0.0000000000000000e+00 1.0000000000000000e+01
0.0000000000000000e+00 1.0000000000000000e+01
ITEM: ATOMS id type x y z vx vy vz
2 1 4.85459 5.20082 5.61339 2.7091 3.55208 0.894328
5 2 4.33512 4.55899 3.69231 1.45707 14.4107 7.06544
3 2 3.825 5.33363 5.92603 19.5166 12.2318 -0.391475
6 2 6.18093 4.65734 4.11044 -17.6178 -11.5756 4.56156
4 2 5.65984 5.43602 6.321 -6.26759 -9.50826 -6.28646
1 1 5.14554 4.80032 4.38258 -2.46474 -4.01856 -1.30965
ITEM: TIMESTEP
53700
ITEM: NUMBER OF ATOMS
6
ITEM: BOX BOUNDS pp pp pp
0.0000000000000000e+00 1.0000000000000000e+01
0.0000000000000000e+00 1.0000000000000000e+01
0.0000000000000000e+00 1.0000000000000000e+01
ITEM: ATOMS id type x y z vx vy vz
2 1 5.19912 5.37246 5.51222 3.24053 0.806194 -1.47446
5 2 4.23155 5.08012 3.69637 -7.97293 0.624508 -13.5844
3 2 4.99448 6.4364 5.53013 13.9484 13.9585 -8.95277
6 2 4.98272 3.5543 4.48498 -20.2751 -15.6384 4.39102
4 2 5.75987 4.93231 6.31359 9.12046 -7.22716 9.37426
1 1 4.80371 4.62724 4.48582 -2.80589 -0.11112 2.2106
ITEM: TIMESTEP
53800
ITEM: NUMBER OF ATOMS
6
ITEM: BOX BOUNDS pp pp pp
0.0000000000000000e+00 1.0000000000000000e+01
0.0000000000000000e+00 1.0000000000000000e+01
0.0000000000000000e+00 1.0000000000000000e+01
ITEM: ATOMS id type x y z vx vy vz
2 1 5.52952 5.29401 5.27299 3.7931 -0.0313562 -1.39481
5 2 4.31873 4.70094 3.62074 -6.75016 -5.69706 10.8218
3 2 6.25564 5.831 4.62589 10.9072 -13.7479 -1.33104
6 2 3.72178 4.18233 5.35151 -11.6455 18.749 1.7913
4 2 5.65793 5.26977 6.38316 6.40543 6.84404 -9.35693
1 1 4.47453 4.70729 4.72873 -3.70222 -0.484593 1.23325
ITEM: TIMESTEP
53900
ITEM: NUMBER OF ATOMS
6
ITEM: BOX BOUNDS pp pp pp
0.0000000000000000e+00 1.0000000000000000e+01
0.0000000000000000e+00 1.0000000000000000e+01
0.0000000000000000e+00 1.0000000000000000e+01
ITEM: ATOMS id type x y z vx vy vz
2 1 5.66182 5.07522 5.03014 2.30874 -2.44366 -2.14693
5 2 3.91671 4.05823 4.51476 -10.7051 -3.52886 13.3222
3 2 6.31483 4.37827 4.55365 0.269234 -1.72923 8.60631
6 2 3.68706 5.63031 5.43981 3.34941 6.76546 -7.81161
4 2 6.10294 5.92222 5.50645 17.4956 -0.323007 -18.9631
1 1 4.33657 4.92567 4.96878 -3.18228 2.34426 2.55362
ITEM: TIMESTEP
54000
ITEM: NUMBER OF ATOMS
6
ITEM: BOX BOUNDS pp pp pp
0.0000000000000000e+00 1.0000000000000000e+01
0.0000000000000000e+00 1.0000000000000000e+01
0.0000000000000000e+00 1.0000000000000000e+01
ITEM: ATOMS id type x y z vx vy vz
2 1 5.59054 4.79493 4.77957 0.322453 -3.04416 -1.92867
6 2 3.93444 6.13882 4.83715 -11.0784 12.4548 0.925649
4 2 6.16034 5.36937 4.02395 -0.585322 -11.9046 -21.2497
5 2 3.86539 4.63543 6.00242 -3.27566 16.8047 18.02
3 2 6.08419 3.8734 5.15474 9.12071 -13.1258 3.84737
1 1 4.40594 5.20361 5.21904 0.165848 2.68925 1.79916
ITEM: TIMESTEP
54100
ITEM: NUMBER OF ATOMS
6
ITEM: BOX BOUNDS pp pp pp
0.0000000000000000e+00 1.0000000000000000e+01
0.0000000000000000e+00 1.0000000000000000e+01
0.0000000000000000e+00 1.0000000000000000e+01
ITEM: ATOMS id type x y z vx vy vz
2 1 5.31132 4.49104 4.6946 -1.13358 -5.16077 -0.780655
6 2 3.83669 6.00574 4.86573 11.1293 1.55729 18.6509
4 2 5.02607 4.17307 3.68581 -6.67409 -11.8502 14.7598
5 2 4.95766 5.86279 6.3025 5.97517 12.1302 -16.1346
3 2 6.1682 4.00256 5.1522 -7.88282 2.62688 -17.5432
1 1 4.68984 5.50522 5.30502 0.919789 4.78614 0.803072
ITEM: TIMESTEP
54200
ITEM: NUMBER OF ATOMS
6
ITEM: BOX BOUNDS pp pp pp
0.0000000000000000e+00 1.0000000000000000e+01
0.0000000000000000e+00 1.0000000000000000e+01
0.0000000000000000e+00 1.0000000000000000e+01
ITEM: ATOMS id type x y z vx vy vz
2 1 4.98449 4.35624 4.81592 -2.72696 -0.846384 2.99485
6 2 4.15942 6.13639 5.64401 -0.0964196 11.1811 15.5403
4 2 4.11507 3.73495 4.92383 -6.57486 -13.6882 8.07325
5 2 5.88839 6.26304 5.07903 13.4362 10.5191 -11.7905
3 2 5.84316 3.86076 4.36591 -8.4231 -15.819 -20.8698
1 1 5.0152 5.64413 5.18315 2.86612 1.50155 -2.23564
ITEM: TIMESTEP
54300
ITEM: NUMBER OF ATOMS
6
ITEM: BOX BOUNDS pp pp pp
0.0000000000000000e+00 1.0000000000000000e+01
0.0000000000000000e+00 1.0000000000000000e+01
0.0000000000000000e+00 1.0000000000000000e+01
ITEM: ATOMS id type x y z vx vy vz
2 1 4.68297 4.41385 5.01224 -3.01271 -0.57366 2.48328
6 2 5.60978 6.12729 5.91657 17.6473 -1.12864 -12.4429
4 2 4.46185 3.84762 5.95401 4.71843 0.393931 -2.19788
5 2 5.55387 6.12757 4.02924 -1.38204 0.454812 5.98236
3 2 4.38968 3.84515 4.10708 -20.69 3.72344 10.3926
1 1 5.31596 5.59051 4.98733 2.98806 0.284677 -2.62881
ITEM: TIMESTEP
54400
ITEM: NUMBER OF ATOMS
6
ITEM: BOX BOUNDS pp pp pp
0.0000000000000000e+00 1.0000000000000000e+01
0.0000000000000000e+00 1.0000000000000000e+01
0.0000000000000000e+00 1.0000000000000000e+01
ITEM: ATOMS id type x y z vx vy vz
2 1 4.51377 4.64806 5.31093 -1.08629 3.42485 4.18613
6 2 6.52993 5.19227 4.85339 -3.85807 -5.10265 -15.8629
4 2 4.71642 3.834 5.96877 -3.47148 -5.58856 -4.55688
5 2 5.29565 6.14401 4.00887 8.99768 3.59839 2.88391
3 2 3.47186 4.82761 5.12422 3.43351 8.37074 11.9008
1 1 5.48527 5.35208 4.69298 0.658163 -3.5321 -3.71323
ITEM: TIMESTEP
54500
ITEM: NUMBER OF ATOMS
6
ITEM: BOX BOUNDS pp pp pp
0.0000000000000000e+00 1.0000000000000000e+01
0.0000000000000000e+00 1.0000000000000000e+01
0.0000000000000000e+00 1.0000000000000000e+01
ITEM: ATOMS id type x y z vx vy vz
2 1 4.60988 4.95241 5.54531 4.02541 2.07495 0.664798
6 2 5.67964 4.18321 3.81834 -12.2299 -16.2918 -10.4323
4 2 4.21698 3.98288 5.92282 -15.7782 5.0773 2.78753
5 2 5.77919 6.01353 4.06682 11.4758 0.817562 -1.16466
3 2 4.33945 5.82249 6.18212 5.78315 10.034 12.3431
1 1 5.38903 5.04737 4.45567 -3.12333 -2.0445 -0.961346
ITEM: TIMESTEP
54600
ITEM: NUMBER OF ATOMS
6
ITEM: BOX BOUNDS pp pp pp
0.0000000000000000e+00 1.0000000000000000e+01
0.0000000000000000e+00 1.0000000000000000e+01
0.0000000000000000e+00 1.0000000000000000e+01
ITEM: ATOMS id type x y z vx vy vz
2 1 4.85179 5.20977 5.62129 3.17406 2.88851 0.302858
6 2 4.38228 4.47761 3.66574 4.99161 15.5328 9.95095
4 2 3.84352 5.22564 6.04072 13.3823 14.7518 -4.25625
5 2 6.17045 4.78566 3.9869 -14.0076 -13.0613 5.5064
3 2 5.59694 5.50074 6.35782 -3.06395 -12.982 -12.3393
1 1 5.14898 4.79106 4.37457 -3.28335 -3.24444 -0.207342
ITEM: TIMESTEP
54700
ITEM: NUMBER OF ATOMS
6
ITEM: BOX BOUNDS pp pp pp
0.0000000000000000e+00 1.0000000000000000e+01
0.0000000000000000e+00 1.0000000000000000e+01
0.0000000000000000e+00 1.0000000000000000e+01
ITEM: ATOMS id type x y z vx vy vz
2 1 5.19795 5.38053 5.52424 3.9165 -0.053859 -4.54371
6 2 4.16232 4.99868 3.68505 -1.9271 8.90048 -11.8739
4 2 4.92368 6.41661 5.63671 4.66657 12.5344 -9.91476
5 2 5.06367 3.58258 4.36294 -11.4973 -13.2929 5.55567
3 2 5.81334 4.97457 6.3253 2.73941 -14.5244 7.25149
1 1 4.80536 4.62175 4.47506 -3.41144 0.589473 5.29744
ITEM: TIMESTEP
54800
ITEM: NUMBER OF ATOMS
6
ITEM: BOX BOUNDS pp pp pp
0.0000000000000000e+00 1.0000000000000000e+01
0.0000000000000000e+00 1.0000000000000000e+01
0.0000000000000000e+00 1.0000000000000000e+01
ITEM: ATOMS id type x y z vx vy vz
2 1 5.52533 5.3105 5.28267 1.35976 -2.57798 -3.57268
6 2 4.2174 4.78182 3.64184 8.17056 -2.11345 6.94209
4 2 6.24611 5.91027 4.66958 -0.216638 -15.6209 -4.73417
5 2 3.73227 4.08637 5.30779 -0.657897 20.9988 12.0311
3 2 5.77188 5.2137 6.35916 -3.75937 4.12317 -8.32932
1 1 4.47759 4.69012 4.71929 -1.65655 1.95801 3.07673
ITEM: TIMESTEP
54900
ITEM: NUMBER OF ATOMS
6
ITEM: BOX BOUNDS pp pp pp
0.0000000000000000e+00 1.0000000000000000e+01