ITEM: TIMESTEP
49600
ITEM: NUMBER OF ATOMS
6
ITEM: BOX BOUNDS pp pp pp
0.0000000000000000e+00 1.0000000000000000e+01
0.0000000000000000e+00 1.0000000000000000e+01
0.0000000000000000e+00 1.0000000000000000e+01
ITEM: ATOMS id type x y z vx vy vz
5 2 4.41057 4.89089 3.58711 7.21384 6.0634 13.6073
1 1 5.13633 4.77475 4.39303 -3.37985 -2.61852 -0.312324
6 2 6.04926 4.20843 4.19004 -19.3611 -10.0905 5.06013
3 2 3.94153 5.78887 5.78555 20.3628 9.71562 -7.31316
2 1 4.86418 5.2281 5.60962 3.10941 2.27659 1.0353
4 2 5.59492 5.07738 6.40744 -4.99297 -1.61396 -19.9693
ITEM: TIMESTEP
49700
ITEM: NUMBER OF ATOMS
6
ITEM: BOX BOUNDS pp pp pp
0.0000000000000000e+00 1.0000000000000000e+01
0.0000000000000000e+00 1.0000000000000000e+01
0.0000000000000000e+00 1.0000000000000000e+01
ITEM: ATOMS id type x y z vx vy vz
5 2 4.5353 5.06187 3.54528 -1.76117 7.60343 -9.27256
1 1 4.74765 4.62671 4.5132 -2.53378 -0.360435 2.18739
6 2 4.53842 3.58747 4.69472 -21.2742 -3.52991 17.5753
3 2 5.44589 6.41118 5.31978 21.7327 5.56176 -7.53863
2 1 5.25546 5.37344 5.48586 2.11267 -0.23061 -3.21843
4 2 5.4457 4.93726 6.45317 6.32061 -2.59233 11.5218
ITEM: TIMESTEP
49800
ITEM: NUMBER OF ATOMS
6
ITEM: BOX BOUNDS pp pp pp
0.0000000000000000e+00 1.0000000000000000e+01
0.0000000000000000e+00 1.0000000000000000e+01
0.0000000000000000e+00 1.0000000000000000e+01
ITEM: ATOMS id type x y z vx vy vz
5 2 4.49036 4.28458 3.73507 -7.7015 -7.09967 11.8414
1 1 4.44832 4.73954 4.74445 -2.94396 0.936215 1.89738
6 2 3.5144 4.71628 5.36023 -0.885858 16.9639 -2.27657
3 2 6.49552 5.309 4.65044 0.66707 -13.6348 -3.08389
2 1 5.54816 5.25688 5.25529 3.12805 -1.27562 -1.64884
4 2 5.544 5.73233 6.25912 5.72664 7.81501 -9.44252
ITEM: TIMESTEP
49900
ITEM: NUMBER OF ATOMS
6
ITEM: BOX BOUNDS pp pp pp
0.0000000000000000e+00 1.0000000000000000e+01
0.0000000000000000e+00 1.0000000000000000e+01
0.0000000000000000e+00 1.0000000000000000e+01
ITEM: ATOMS id type x y z vx vy vz
5 2 3.87214 3.99061 5.09791 -8.1782 11.6696 20.4883
1 1 4.33951 4.9511 5.01999 -1.49796 2.81208 2.10187
6 2 3.72257 5.81307 5.00289 -1.95605 -1.02396 -4.18305
3 2 6.26159 4.17278 4.99735 -3.76335 -0.670822 -1.69862
2 1 5.66255 5.04936 4.97881 2.66744 -2.68767 -1.56775
4 2 6.12161 6.01769 4.91796 -0.0379616 -11.4573 -20.9712
ITEM: TIMESTEP
50000
ITEM: NUMBER OF ATOMS
6
ITEM: BOX BOUNDS pp pp pp
0.0000000000000000e+00 1.0000000000000000e+01
0.0000000000000000e+00 1.0000000000000000e+01
0.0000000000000000e+00 1.0000000000000000e+01
ITEM: ATOMS id type x y z vx vy vz
5 2 4.19367 5.13319 6.32649 6.4033 14.8583 18.6904
1 1 4.46314 5.27682 5.26302 0.989506 3.93901 1.41978
6 2 3.76548 5.87465 4.6354 -9.73556 5.09172 -2.33976
3 2 6.22166 4.12595 5.36947 11.3855 -7.92152 -2.45323
2 1 5.5376 4.72002 4.73581 -1.68109 -3.42333 -0.969238
4 2 5.81271 4.9035 3.6843 0.187797 -18.1734 -19.2661
ITEM: TIMESTEP
50100
ITEM: NUMBER OF ATOMS
6
ITEM: BOX BOUNDS pp pp pp
0.0000000000000000e+00 1.0000000000000000e+01
0.0000000000000000e+00 1.0000000000000000e+01
0.0000000000000000e+00 1.0000000000000000e+01
ITEM: ATOMS id type x y z vx vy vz
2 1 5.23979 4.44771 4.72657 -2.63092 -5.35207 0.314573
4 2 4.616 3.76176 4.14471 5.94764 -0.058336 15.412
6 2 3.69492 5.78295 5.20576 13.555 5.24903 16.2463
3 2 6.30361 4.19321 4.78506 -12.0405 -3.64389 -19.3828
5 2 5.41591 6.23468 5.82387 -7.11221 -0.694473 -17.2118
1 1 4.75786 5.55456 5.27698 2.60156 5.28054 0.0996864
ITEM: TIMESTEP
50200
ITEM: NUMBER OF ATOMS
6
ITEM: BOX BOUNDS pp pp pp
0.0000000000000000e+00 1.0000000000000000e+01
0.0000000000000000e+00 1.0000000000000000e+01
0.0000000000000000e+00 1.0000000000000000e+01
ITEM: ATOMS id type x y z vx vy vz
2 1 4.90851 4.35862 4.84424 -2.59094 -1.40194 1.72335
4 2 4.38951 3.68554 5.50807 -4.36028 -9.40458 13.2614
6 2 4.6957 6.06227 6.06147 18.2907 17.7502 9.10113
3 2 5.31496 3.93318 3.94498 -19.2328 -9.39517 -13.5126
5 2 5.59849 6.3322 4.50036 2.7557 17.6187 -9.34608
1 1 5.0918 5.64024 5.15466 2.80466 0.0114544 -1.68171
ITEM: TIMESTEP
50300
ITEM: NUMBER OF ATOMS
6
ITEM: BOX BOUNDS pp pp pp
0.0000000000000000e+00 1.0000000000000000e+01
0.0000000000000000e+00 1.0000000000000000e+01
0.0000000000000000e+00 1.0000000000000000e+01
ITEM: ATOMS id type x y z vx vy vz
2 1 4.60237 4.4738 5.09788 -3.1386 1.19978 4.16293
4 2 4.81486 3.71342 5.88278 -7.51167 -7.1351 -7.78184
6 2 6.29786 5.73947 5.53838 6.6394 -1.9748 -13.5062
3 2 3.72529 4.2732 4.4291 -10.8157 0.576158 18.0333
5 2 5.20407 6.29263 4.12081 3.53318 2.99886 7.56607
1 1 5.3943 5.52459 4.9047 3.82295 -0.735287 -4.52474
ITEM: TIMESTEP
50400
ITEM: NUMBER OF ATOMS
6
ITEM: BOX BOUNDS pp pp pp
0.0000000000000000e+00 1.0000000000000000e+01
0.0000000000000000e+00 1.0000000000000000e+01
0.0000000000000000e+00 1.0000000000000000e+01
ITEM: ATOMS id type x y z vx vy vz
2 1 4.52852 4.74846 5.40532 0.573252 2.74583 4.42793
4 2 4.51298 3.71633 5.70544 -19.4935 6.52409 -2.88661
6 2 6.24227 4.65686 4.16899 -8.5414 -1.99561 -9.13558
3 2 3.73812 5.32526 5.82963 8.42607 -2.71912 13.0487
5 2 5.46147 6.28373 4.30023 14.4488 -6.32252 -0.649573
1 1 5.47547 5.253 4.59446 -0.140217 -2.36708 -4.45957
ITEM: TIMESTEP
50500
ITEM: NUMBER OF ATOMS
6
ITEM: BOX BOUNDS pp pp pp
0.0000000000000000e+00 1.0000000000000000e+01
0.0000000000000000e+00 1.0000000000000000e+01
0.0000000000000000e+00 1.0000000000000000e+01
ITEM: ATOMS id type x y z vx vy vz
2 1 4.67729 5.0389 5.58693 2.41791 3.08927 0.775615
4 2 3.71844 4.52843 5.7888 -15.2047 12.2868 6.18799
6 2 4.91311 4.42058 3.52975 -7.40994 3.97258 -15.6573
3 2 5.09 5.57343 6.46731 13.6697 -1.628 10.5462
5 2 6.27731 5.48674 4.21036 14.0422 -8.11596 -14.5876
1 1 5.32301 4.9603 4.41353 -2.84567 -3.63605 0.358208
ITEM: TIMESTEP
50600
ITEM: NUMBER OF ATOMS
6
ITEM: BOX BOUNDS pp pp pp
0.0000000000000000e+00 1.0000000000000000e+01
0.0000000000000000e+00 1.0000000000000000e+01
0.0000000000000000e+00 1.0000000000000000e+01
ITEM: ATOMS id type x y z vx vy vz
2 1 4.97326 5.30485 5.60347 3.98053 3.60501 -0.27443
4 2 4.27026 6.11423 5.82652 24.0313 -0.0250254 0.0650691
6 2 4.36888 4.94595 3.55885 11.4577 3.62084 6.74221
3 2 5.62858 5.01286 6.42624 -10.8209 -0.550583 -4.37128
5 2 5.721 3.88294 4.15493 -21.9479 5.85983 2.33779
1 1 5.02788 4.69881 4.39948 -4.20881 -4.35232 -0.126188
ITEM: TIMESTEP
50700
ITEM: NUMBER OF ATOMS
6
ITEM: BOX BOUNDS pp pp pp
0.0000000000000000e+00 1.0000000000000000e+01
0.0000000000000000e+00 1.0000000000000000e+01
0.0000000000000000e+00 1.0000000000000000e+01
ITEM: ATOMS id type x y z vx vy vz
2 1 5.36239 5.37403 5.43225 2.29308 -2.23372 -3.50858
4 2 5.87379 6.28365 5.14181 21.0646 2.84643 -8.02243
6 2 4.45677 4.92615 3.55355 1.04336 -1.14508 -8.3929
3 2 5.53485 5.10809 6.46522 1.19914 6.89287 8.73944
5 2 4.12626 3.72424 4.86876 -18.0922 -1.87943 15.9072
1 1 4.63851 4.6224 4.56543 -2.73071 1.67021 2.81781
ITEM: TIMESTEP
50800
ITEM: NUMBER OF ATOMS
6
ITEM: BOX BOUNDS pp pp pp
0.0000000000000000e+00 1.0000000000000000e+01
0.0000000000000000e+00 1.0000000000000000e+01
0.0000000000000000e+00 1.0000000000000000e+01
ITEM: ATOMS id type x y z vx vy vz
2 1 5.61273 5.21272 5.17593 1.48856 -1.21364 -3.10288
4 2 6.54671 4.91344 4.64527 -9.56565 -17.4649 1.75954
6 2 4.2058 4.11544 3.93871 -7.46495 -1.94945 9.35506
3 2 5.80609 5.90291 6.03891 0.129637 2.66109 -11.3924
5 2 3.46222 5.09158 5.37218 3.57992 18.5488 -6.04499
1 1 4.38572 4.78528 4.82463 -0.370657 1.06295 3.63348
ITEM: TIMESTEP
50900
ITEM: NUMBER OF ATOMS
6
ITEM: BOX BOUNDS pp pp pp
0.0000000000000000e+00 1.0000000000000000e+01
0.0000000000000000e+00 1.0000000000000000e+01
0.0000000000000000e+00 1.0000000000000000e+01
ITEM: ATOMS id type x y z vx vy vz
2 1 5.67187 4.96497 4.89672 -0.944391 -2.84613 -2.94995
4 2 6.21341 4.05643 5.0782 -11.0256 -2.64811 5.92893
6 2 3.75612 4.22944 5.49652 8.47658 10.3276 11.6238
3 2 6.23092 5.7762 4.5006 -7.12988 -9.45014 -13.4207
5 2 3.75708 5.9321 4.94583 9.53766 -2.19712 -10.9818
1 1 4.33189 5.03549 5.10166 0.956245 3.17911 3.52479
ITEM: TIMESTEP
51000
ITEM: NUMBER OF ATOMS
6
ITEM: BOX BOUNDS pp pp pp
0.0000000000000000e+00 1.0000000000000000e+01
0.0000000000000000e+00 1.0000000000000000e+01
0.0000000000000000e+00 1.0000000000000000e+01
ITEM: ATOMS id type x y z vx vy vz
2 1 5.47257 4.62664 4.70435 -4.52952 -0.542223 0.106354
4 2 6.25171 4.08486 5.27278 4.69936 -6.02374 7.82817
6 2 4.49439 5.51699 6.39772 23.4314 11.1279 9.64963
3 2 5.52956 4.49131 3.59745 -16.2841 -13.8555 -8.70172
5 2 3.76409 5.92547 4.72014 -3.97927 0.766039 -15.014
1 1 4.52429 5.37177 5.29679 3.8693 1.21235 0.41713
ITEM: TIMESTEP
51100
ITEM: NUMBER OF ATOMS
6
ITEM: BOX BOUNDS pp pp pp
0.0000000000000000e+00 1.0000000000000000e+01
0.0000000000000000e+00 1.0000000000000000e+01
0.0000000000000000e+00 1.0000000000000000e+01
ITEM: ATOMS id type x y z vx vy vz
2 1 5.14604 4.39547 4.75412 -2.5221 -1.79272 0.235436
3 2 4.36935 3.67745 4.48271 -6.51696 12.6614 21.7752
5 2 3.8198 5.90839 5.45787 19.0039 -5.92901 3.25901
4 2 6.16618 4.06751 4.52419 -17.9315 12.9434 -0.224937
6 2 5.64738 6.31958 5.49585 3.34105 -8.98865 -24.5247
1 1 4.85393 5.60677 5.24933 2.69862 0.895855 -0.259323
ITEM: TIMESTEP
51200
ITEM: NUMBER OF ATOMS
6
ITEM: BOX BOUNDS pp pp pp
0.0000000000000000e+00 1.0000000000000000e+01
0.0000000000000000e+00 1.0000000000000000e+01
0.0000000000000000e+00 1.0000000000000000e+01
ITEM: ATOMS id type x y z vx vy vz
2 1 4.81728 4.36146 4.90744 -1.75682 2.11792 2.70183
3 2 4.42886 3.77772 5.72351 -0.684487 10.3952 19.8689
5 2 5.16516 6.10106 6.06405 16.701 -2.85168 12.6913
4 2 4.85188 3.91609 3.92501 -16.1509 5.79721 -16.9534
6 2 5.56126 6.24474 4.29115 -5.05258 -4.67064 -17.4598
1 1 5.18232 5.63518 5.0924 2.19211 -2.84551 -2.54632
ITEM: TIMESTEP
51300
ITEM: NUMBER OF ATOMS
6
ITEM: BOX BOUNDS pp pp pp
0.0000000000000000e+00 1.0000000000000000e+01
0.0000000000000000e+00 1.0000000000000000e+01
0.0000000000000000e+00 1.0000000000000000e+01
ITEM: ATOMS id type x y z vx vy vz
2 1 4.55412 4.54858 5.18799 -0.43526 2.75291 1.97414
3 2 4.83117 3.7301 5.90447 2.40602 5.67089 0.352484
5 2 6.48514 5.43612 5.21045 -2.25999 -23.1545 -10.7788
4 2 3.52301 4.53763 4.76643 1.44425 18.1786 16.316
6 2 5.18005 6.27645 4.10276 -10.1666 -5.73831 -0.552282
1 1 5.44445 5.45304 4.81349 1.15498 -2.32967 -2.42205
ITEM: TIMESTEP
51400
ITEM: NUMBER OF ATOMS
6
ITEM: BOX BOUNDS pp pp pp
0.0000000000000000e+00 1.0000000000000000e+01
0.0000000000000000e+00 1.0000000000000000e+01
0.0000000000000000e+00 1.0000000000000000e+01
ITEM: ATOMS id type x y z vx vy vz
2 1 4.57181 4.83962 5.4784 1.82085 2.90879 2.36387
3 2 4.32963 3.8311 5.69074 -3.45739 8.242 -10.0062
5 2 5.94746 4.39191 3.97433 -17.9475 -7.26433 -2.71263
4 2 4.02206 5.59005 6.0103 19.3388 9.60498 1.7473
6 2 5.64915 6.18407 4.33062 2.98041 -9.60485 6.08525
1 1 5.43272 5.16059 4.52124 -1.89758 -2.99085 -1.95381
ITEM: TIMESTEP
51500
ITEM: NUMBER OF ATOMS
6
ITEM: BOX BOUNDS pp pp pp
0.0000000000000000e+00 1.0000000000000000e+01
0.0000000000000000e+00 1.0000000000000000e+01
0.0000000000000000e+00 1.0000000000000000e+01
ITEM: ATOMS id type x y z vx vy vz
2 1 4.75776 5.11788 5.60204 3.53031 1.19739 -0.306692
3 2 3.68308 4.92097 5.81965 -12.8642 17.873 -6.41892
5 2 4.59791 4.50486 3.59568 -15.2965 -0.30736 -5.10025
4 2 5.41876 5.50991 6.38941 21.0194 2.90612 3.52594
6 2 6.31156 5.06621 4.16399 8.05998 -16.0395 -1.60145
1 1 5.24149 4.88192 4.40073 -3.6074 -1.56934 1.11188
ITEM: TIMESTEP
51600
ITEM: NUMBER OF ATOMS
6
ITEM: BOX BOUNDS pp pp pp
0.0000000000000000e+00 1.0000000000000000e+01
0.0000000000000000e+00 1.0000000000000000e+01
0.0000000000000000e+00 1.0000000000000000e+01
ITEM: ATOMS id type x y z vx vy vz
2 1 5.09327 5.34867 5.55175 3.90632 1.0921 -0.905711
3 2 4.60843 6.31787 5.67472 25.314 -1.93012 -5.32108
5 2 4.33883 5.07308 3.61331 7.69186 -1.16788 13.2224
4 2 5.66751 4.91018 6.3817 -10.1805 6.62351 -11.9461
6 2 5.36511 3.67747 4.31874 -16.5082 3.24453 10.6393
1 1 4.90862 4.65309 4.44936 -4.43646 -1.66024 0.352298
ITEM: TIMESTEP
51700
ITEM: NUMBER OF ATOMS
6
ITEM: BOX BOUNDS pp pp pp
0.0000000000000000e+00 1.0000000000000000e+01
0.0000000000000000e+00 1.0000000000000000e+01
0.0000000000000000e+00 1.0000000000000000e+01
ITEM: ATOMS id type x y z vx vy vz
2 1 5.45369 5.33154 5.34399 3.07727 -2.84648 -3.71337
3 2 6.1095 6.0355 4.86903 14.0604 -5.79412 -8.96821
5 2 4.47532 4.82033 3.59084 -1.65723 -6.40345 -14.226
4 2 5.53019 5.21307 6.40591 -0.284056 12.3961 13.2144
6 2 3.88711 3.97852 5.16117 -12.0636 3.48881 10.4562
1 1 4.54633 4.66444 4.6539 -3.08193 2.53704 3.67339
ITEM: TIMESTEP
51800
ITEM: NUMBER OF ATOMS
6
ITEM: BOX BOUNDS pp pp pp
0.0000000000000000e+00 1.0000000000000000e+01
0.0000000000000000e+00 1.0000000000000000e+01
0.0000000000000000e+00 1.0000000000000000e+01
ITEM: ATOMS id type x y z vx vy vz
2 1 5.63695 5.1444 5.08681 1.69978 -2.58446 -2.07294
3 2 6.42673 4.50954 4.61477 0.704698 -10.5932 2.60384
5 2 4.07149 4.02262 4.23504 -11.7203 3.93894 18.4353
4 2 5.93338 5.99061 5.74984 4.70656 2.81673 -19.4244
6 2 3.5602 5.47703 5.38039 -2.68895 5.2957 -6.64506
1 1 4.36394 4.85558 4.91502 -0.944665 2.4621 2.49508
ITEM: TIMESTEP
51900
ITEM: NUMBER OF ATOMS
6
ITEM: BOX BOUNDS pp pp pp
0.0000000000000000e+00 1.0000000000000000e+01
0.0000000000000000e+00 1.0000000000000000e+01
0.0000000000000000e+00 1.0000000000000000e+01
ITEM: ATOMS id type x y z vx vy vz
2 1 5.62624 4.8638 4.81573 -0.921213 -4.44659 -2.70714
3 2 6.10721 3.99393 5.19686 5.34689 10.0697 -3.09883
5 2 3.82219 4.47571 5.81897 -0.10295 12.3829 8.00377
4 2 6.1577 5.54151 4.17463 2.51097 -19.4673 -10.6007
6 2 3.88548 6.00731 4.82899 -3.46666 -8.55109 -2.47489
1 1 4.37626 5.13462 5.18278 0.561342 4.91367 3.39282
ITEM: TIMESTEP
52000
ITEM: NUMBER OF ATOMS
6
ITEM: BOX BOUNDS pp pp pp
0.0000000000000000e+00 1.0000000000000000e+01
0.0000000000000000e+00 1.0000000000000000e+01
0.0000000000000000e+00 1.0000000000000000e+01
ITEM: ATOMS id type x y z vx vy vz
2 1 5.37328 4.54677 4.69248 -4.40654 -2.9242 0.186531
3 2 6.23947 4.07435 5.20564 14.4568 -7.55299 -7.27239
5 2 4.87288 5.78442 6.32929 9.5316 16.2898 6.71616
4 2 5.15918 4.19921 3.67364 -4.59839 -20.8638 -6.15005
6 2 3.78025 5.93897 4.76486 -13.6036 6.65532 3.85616
1 1 4.62258 5.45345 5.3099 3.92094 3.38339 0.0526513
ITEM: TIMESTEP
52100
ITEM: NUMBER OF ATOMS
6
ITEM: BOX BOUNDS pp pp pp
0.0000000000000000e+00 1.0000000000000000e+01
0.0000000000000000e+00 1.0000000000000000e+01
0.0000000000000000e+00 1.0000000000000000e+01
ITEM: ATOMS id type x y z vx vy vz
2 1 5.04154 4.36903 4.78436 -3.33891 -3.73871 0.06837
4 2 4.19174 3.67311 4.8939 10.8772 3.79063 11.5323
6 2 4.02945 6.02378 5.623 24.6921 11.5681 4.47884
3 2 5.95649 3.97075 4.34606 -20.5725 -4.80285 -4.21815
5 2 5.80691 6.32645 5.10662 -17.303 2.08488 -11.5154
1 1 4.95995 5.63143 5.21834 3.53244 2.6779 -0.0916644
ITEM: TIMESTEP
52200
ITEM: NUMBER OF ATOMS
6
ITEM: BOX BOUNDS pp pp pp
0.0000000000000000e+00 1.0000000000000000e+01
0.0000000000000000e+00 1.0000000000000000e+01
0.0000000000000000e+00 1.0000000000000000e+01
ITEM: ATOMS id type x y z vx vy vz
2 1 4.71848 4.38646 4.97913 -3.90378 1.49225 2.12257
4 2 4.52757 3.83742 5.8795 -0.37827 -14.0519 9.59775
6 2 5.58221 6.07251 5.95069 18.6345 8.87879 -0.637179
3 2 4.42016 3.94367 4.04069 -19.5466 -8.47806 3.00726
5 2 5.49244 6.18333 4.13772 -6.46461 16.2128 -11.9813
1 1 5.27984 5.6104 5.0203 4.55458 -1.70722 -2.12144
ITEM: TIMESTEP
52300
ITEM: NUMBER OF ATOMS
6
ITEM: BOX BOUNDS pp pp pp
0.0000000000000000e+00 1.0000000000000000e+01
0.0000000000000000e+00 1.0000000000000000e+01
0.0000000000000000e+00 1.0000000000000000e+01
ITEM: ATOMS id type x y z vx vy vz
2 1 4.52148 4.62216 5.27652 -1.37995 1.53863 3.70749
4 2 4.74696 3.74769 5.93648 -12.1815 2.17076 -0.430972
6 2 6.56655 5.13259 4.82754 0.419905 -10.472 -16.2013
3 2 3.43099 4.83828 5.16818 -3.69586 4.76066 19.6623
5 2 5.23283 6.2461 4.05448 7.89963 -1.32591 5.23577
1 1 5.48063 5.38077 4.72475 2.01421 -1.13023 -4.40116
ITEM: TIMESTEP
52400
ITEM: NUMBER OF ATOMS
6
ITEM: BOX BOUNDS pp pp pp
0.0000000000000000e+00 1.0000000000000000e+01
0.0000000000000000e+00 1.0000000000000000e+01
0.0000000000000000e+00 1.0000000000000000e+01
ITEM: ATOMS id type x y z vx vy vz
2 1 4.60409 4.92728 5.54396 -0.559347 3.16392 3.15689
4 2 4.12783 3.99838 5.79778 -5.6494 8.18597 3.67245
6 2 5.59766 4.26493 3.78823 -17.1026 10.8647 -8.86764
3 2 4.37144 5.73046 6.21336 17.6171 -3.76279 4.39131
5 2 5.8578 6.0057 4.20479 9.27145 -12.216 -9.66957
1 1 5.39991 5.07273 4.45584 0.212209 -3.42171 -2.27796
ITEM: TIMESTEP
52500
ITEM: NUMBER OF ATOMS
6
ITEM: BOX BOUNDS pp pp pp
0.0000000000000000e+00 1.0000000000000000e+01
0.0000000000000000e+00 1.0000000000000000e+01
0.0000000000000000e+00 1.0000000000000000e+01
ITEM: ATOMS id type x y z vx vy vz
2 1 4.83639 5.19408 5.62552 2.20779 2.45116 0.0267742
4 2 3.79856 5.38489 5.9439 -2.62352 19.0773 5.20534
6 2 4.41826 4.5891 3.57862 -15.1196 6.63616 -13.2661
3 2 5.61263 5.42054 6.38735 14.3823 -2.68336 7.55719
5 2 6.19344 4.60338 4.04485 4.06585 -18.845 -8.01169
1 1 5.16189 4.80606 4.37843 -2.26696 -2.80237 0.687829
ITEM: TIMESTEP
52600
ITEM: NUMBER OF ATOMS
6
ITEM: BOX BOUNDS pp pp pp
0.0000000000000000e+00 1.0000000000000000e+01
0.0000000000000000e+00 1.0000000000000000e+01
0.0000000000000000e+00 1.0000000000000000e+01
ITEM: ATOMS id type x y z vx vy vz
2 1 5.20691 5.37685 5.51938 3.24245 1.36825 -0.029589
4 2 5.06658 6.4668 5.56039 23.6738 -8.94489 -7.91833
6 2 4.29343 5.02893 3.59658 6.87466 -0.651857 13.4122
3 2 5.71288 4.98069 6.39826 -3.56151 7.94943 -10.4864
5 2 4.90842 3.52252 4.4558 -18.1082 10.7037 12.331
1 1 4.79486 4.62321 4.47984 -3.98756 -2.12826 -0.58625
ITEM: TIMESTEP
52700
ITEM: NUMBER OF ATOMS
6
ITEM: BOX BOUNDS pp pp pp
0.0000000000000000e+00 1.0000000000000000e+01
0.0000000000000000e+00 1.0000000000000000e+01
0.0000000000000000e+00 1.0000000000000000e+01
ITEM: ATOMS id type x y z vx vy vz
2 1 5.54348 5.28741 5.27355 1.01854 -2.09023 -2.31519
4 2 6.33498 5.73981 4.70267 14.2874 -13.7834 -18.9063
6 2 4.33287 4.58989 3.66001 -5.59059 -7.43247 -4.64551
3 2 5.68423 5.42047 6.3393 -0.722901 7.23535 7.81017
5 2 3.66498 4.2949 5.31415 -13.466 13.1533 15.1109
1 1 4.45528 4.70877 4.72524 -0.557633 2.15965 2.36812
ITEM: TIMESTEP
52800
ITEM: NUMBER OF ATOMS
6
ITEM: BOX BOUNDS pp pp pp
0.0000000000000000e+00 1.0000000000000000e+01
0.0000000000000000e+00 1.0000000000000000e+01
0.0000000000000000e+00 1.0000000000000000e+01
ITEM: ATOMS id type x y z vx vy vz
2 1 5.66684 5.06624 5.01583 0.229042 -3.02026 -1.61042
4 2 6.36368 4.26329 4.65561 -13.645 -8.72519 2.58899
6 2 3.80974 4.00604 4.65629 -1.58624 -1.39008 15.9061
3 2 6.16899 6.00567 5.3483 -2.86402 2.30725 -20.4895
5 2 3.61408 5.72591 5.31678 9.03299 7.51581 -3.78308
1 1 4.33701 4.93365 4.98625 0.531466 3.04479 2.09527
ITEM: TIMESTEP
52900
ITEM: NUMBER OF ATOMS
6
ITEM: BOX BOUNDS pp pp pp
0.0000000000000000e+00 1.0000000000000000e+01
0.0000000000000000e+00 1.0000000000000000e+01
0.0000000000000000e+00 1.0000000000000000e+01
ITEM: ATOMS id type x y z vx vy vz
2 1 5.57776 4.76151 4.75316 -2.80968 -1.86347 -0.88071
4 2 6.11083 3.96298 5.2191 -5.14177 1.97609 2.11802
6 2 3.93824 4.82292 6.10515 20.8362 9.67361 3.14366
3 2 6.06826 5.18616 3.90314 -17.6421 -18.4282 -7.38723
5 2 3.87937 6.03857 4.78672 12.2921 -1.55574 -7.87961
1 1 4.42271 5.23756 5.2458 1.94157 2.56288 1.72034
ITEM: TIMESTEP
53000
ITEM: NUMBER OF ATOMS
6
ITEM: BOX BOUNDS pp pp pp
0.0000000000000000e+00 1.0000000000000000e+01
0.0000000000000000e+00 1.0000000000000000e+01
0.0000000000000000e+00 1.0000000000000000e+01
ITEM: ATOMS id type x y z vx vy vz
2 1 5.27029 4.46661 4.70986 -4.99534 -0.0385352 2.89673
4 2 6.24017 4.03076 5.01244 9.25405 6.23769 -0.434334
6 2 5.1959 6.01212 6.17728 22.1403 5.70542 2.95643
3 2 4.82648 3.98218 3.81303 -24.1604 -8.18859 -1.21494
5 2 3.77107 5.95612 4.94842 -8.63768 -2.07225 -0.655413
1 1 4.72708 5.53493 5.29438 5.11314 -0.102641 -2.95142
ITEM: TIMESTEP
53100
ITEM: NUMBER OF ATOMS
6
ITEM: BOX BOUNDS pp pp pp
0.0000000000000000e+00 1.0000000000000000e+01
0.0000000000000000e+00 1.0000000000000000e+01
0.0000000000000000e+00 1.0000000000000000e+01
ITEM: ATOMS id type x y z vx vy vz
3 2 4.14011 3.73799 5.24332 7.82345 21.2752 9.79997
2 1 4.94121 4.35658 4.83766 -2.4392 -0.0244809 2.99168
5 2 4.33735 6.15175 5.81905 21.0192 -8.52617 0.356966
4 2 5.65625 3.87164 4.15924 -20.4789 15.2065 -4.14364
1 1 5.05987 5.6403 5.16374 2.4631 -0.964437 -2.79567
6 2 5.85585 6.27546 4.76356 -8.64871 -16.1715 -8.34899
ITEM: TIMESTEP
53200
ITEM: NUMBER OF ATOMS
6
ITEM: BOX BOUNDS pp pp pp
0.0000000000000000e+00 1.0000000000000000e+01
0.0000000000000000e+00 1.0000000000000000e+01
0.0000000000000000e+00 1.0000000000000000e+01
ITEM: ATOMS id type x y z vx vy vz
3 2 4.65733 3.87614 5.97755 7.46639 -1.85724 11.4055
2 1 4.63212 4.44617 5.06107 -0.276973 5.30428 2.84741
5 2 5.92939 5.94295 5.76193 12.7765 -12.4 6.30297
4 2 4.06305 4.06684 4.238 -20.1875 7.82844 -1.89975
1 1 5.36692 5.55242 4.93854 1.337 -4.61717 -3.22987
6 2 5.36401 6.13053 4.02895 -12.6868 -1.75879 -11.2513
ITEM: TIMESTEP
53300
ITEM: NUMBER OF ATOMS
6
ITEM: BOX BOUNDS pp pp pp
0.0000000000000000e+00 1.0000000000000000e+01
0.0000000000000000e+00 1.0000000000000000e+01
0.0000000000000000e+00 1.0000000000000000e+01
ITEM: ATOMS id type x y z vx vy vz
3 2 4.69875 3.7566 5.89395 -0.470415 1.1871 -7.74814
2 1 4.52617 4.72346 5.3649 1.90792 4.88213 2.6136
5 2 6.47917 4.79119 4.55035 -10.1412 -12.285 -4.86139
4 2 3.50563 5.18271 5.46623 12.012 10.8919 6.50265
1 1 5.47846 5.28026 4.63518 -1.93703 -4.91385 -2.80466
6 2 5.26375 6.2248 4.0903 -1.05353 0.584012 8.38346
ITEM: TIMESTEP
53400
ITEM: NUMBER OF ATOMS
6
ITEM: BOX BOUNDS pp pp pp
0.0000000000000000e+00 1.0000000000000000e+01
0.0000000000000000e+00 1.0000000000000000e+01
0.0000000000000000e+00 1.0000000000000000e+01
ITEM: ATOMS id type x y z vx vy vz
3 2 3.99502 4.22715 5.82839 1.31795 14.1756 -10.554
2 1 4.66408 5.01593 5.57462 2.55228 2.79226 1.37323
5 2 5.17141 4.19002 3.72901 -15.491 5.15427 -0.79605
4 2 4.83252 5.81272 6.26048 16.6591 -1.39579 -4.57406
1 1 5.33751 4.98227 4.42748 -3.00991 -2.87596 -0.189577
6 2 5.98455 5.79115 4.15877 2.96706 -16.9368 1.81962
ITEM: TIMESTEP
53500
ITEM: NUMBER OF ATOMS
6
ITEM: BOX BOUNDS pp pp pp
0.0000000000000000e+00 1.0000000000000000e+01
0.0000000000000000e+00 1.0000000000000000e+01
0.0000000000000000e+00 1.0000000000000000e+01
ITEM: ATOMS id type x y z vx vy vz
3 2 3.98387 5.75115 5.894 -4.49181 18.7651 3.54741
2 1 4.93777 5.26875 5.6032 4.21976 1.94439 -2.89591
5 2 4.22431 4.78052 3.68411 -8.36416 14.5268 -4.4587
4 2 5.78879 5.21154 6.29724 11.0771 -7.14925 5.85618
1 1 5.06183 4.73134 4.40035 -4.37154 -2.81306 2.4218
6 2 6.01016 4.25536 4.08412 3.58755 -15.7915 0.704669
ITEM: TIMESTEP
53600
ITEM: NUMBER OF ATOMS
6
ITEM: BOX BOUNDS pp pp pp
0.0000000000000000e+00 1.0000000000000000e+01
0.0000000000000000e+00 1.0000000000000000e+01
0.0000000000000000e+00 1.0000000000000000e+01
ITEM: ATOMS id type x y z vx vy vz
3 2 5.46464 6.44468 5.27242 13.5188 -17.1971 -3.46292
2 1 5.30895 5.37727 5.44576 4.82575 0.822842 -1.62311
5 2 4.27914 5.08821 3.64981 9.1234 -5.9397 7.3237
4 2 5.72009 4.92335 6.36162 -4.65321 9.17989 -9.43891
1 1 4.69101 4.62085 4.5501 -5.37342 -1.10196 1.52427
6 2 4.53897 3.56578 4.76721 -11.4629 17.283 6.75591
ITEM: TIMESTEP
53700
ITEM: NUMBER OF ATOMS
6
ITEM: BOX BOUNDS pp pp pp
0.0000000000000000e+00 1.0000000000000000e+01
0.0000000000000000e+00 1.0000000000000000e+01
0.0000000000000000e+00 1.0000000000000000e+01
ITEM: ATOMS id type x y z vx vy vz
3 2 6.40184 5.29474 4.48053 10.4062 -18.1354 -9.73923
2 1 5.59288 5.23228 5.18966 2.09984 -1.10839 -2.95197
5 2 4.25102 4.48388 3.78987 -13.2383 -10.9584 -4.85192
4 2 5.7548 5.52914 6.20227 5.70154 6.98982 6.81592
1 1 4.40772 4.76444 4.81151 -0.962716 1.4746 3.25272
6 2 3.58758 4.73088 5.51513 -16.4194 17.7403 4.19156
ITEM: TIMESTEP
53800
ITEM: NUMBER OF ATOMS
6
ITEM: BOX BOUNDS pp pp pp
0.0000000000000000e+00 1.0000000000000000e+01
0.0000000000000000e+00 1.0000000000000000e+01
0.0000000000000000e+00 1.0000000000000000e+01
ITEM: ATOMS id type x y z vx vy vz
3 2 6.16849 4.0105 4.75416 3.6787 -4.44377 6.18944
2 1 5.66057 4.98343 4.93659 1.85607 -2.81045 -3.58499
5 2 3.73329 4.0752 5.06168 -4.32441 10.3109 13.5085
4 2 6.24251 5.9413 4.94656 4.83086 -8.91219 -14.8384
1 1 4.34399 5.01638 5.06493 -2.13294 2.69209 4.13514
6 2 3.80367 5.97492 5.22124 -0.885993 4.45542 -11.4152
ITEM: TIMESTEP
53900
ITEM: NUMBER OF ATOMS
6
ITEM: BOX BOUNDS pp pp pp
0.0000000000000000e+00 1.0000000000000000e+01
0.0000000000000000e+00 1.0000000000000000e+01
0.0000000000000000e+00 1.0000000000000000e+01
ITEM: ATOMS id type x y z vx vy vz
3 2 6.03734 3.91203 5.24855 0.559514 3.05567 -12.0349
2 1 5.50605 4.67282 4.71573 -0.314385 -3.90545 -1.84684
5 2 4.24487 5.16067 6.30748 8.96423 17.0071 4.93059
4 2 5.78556 4.84296 3.69904 -6.57466 -25.2757 -3.05437
1 1 4.49188 5.32782 5.28502 0.0104543 4.68098 2.2109
6 2 3.95923 6.07628 4.73779 0.672575 -4.02838 5.82038
ITEM: TIMESTEP
54000
ITEM: NUMBER OF ATOMS
6
ITEM: BOX BOUNDS pp pp pp
0.0000000000000000e+00 1.0000000000000000e+01
0.0000000000000000e+00 1.0000000000000000e+01
0.0000000000000000e+00 1.0000000000000000e+01
ITEM: ATOMS id type x y z vx vy vz
3 2 6.1692 3.9702 4.87016 11.2216 -12.9788 -6.7111
2 1 5.16587 4.41506 4.73487 -2.85589 -2.58002 -0.458382
5 2 5.55015 6.15615 5.88524 10.3088 18.6394 -8.12969
4 2 4.47482 3.84737 4.08983 -17.5396 -16.3808 9.39552
1 1 4.8327 5.58486 5.26852 3.20204 1.95848 0.20046
6 2 3.82528 6.02674 5.11608 -8.11561 18.1264 8.5187
ITEM: TIMESTEP
54100
ITEM: NUMBER OF ATOMS
6
ITEM: BOX BOUNDS pp pp pp
0.0000000000000000e+00 1.0000000000000000e+01
0.0000000000000000e+00 1.0000000000000000e+01
0.0000000000000000e+00 1.0000000000000000e+01
ITEM: ATOMS id type x y z vx vy vz
4 2 4.11985 3.8336 5.54061 10.7511 0.513642 1.7311
3 2 5.25772 3.8036 4.04777 -27.5278 0.241062 7.69901
2 1 4.85026 4.35494 4.90199 -3.29994 -3.19027 0.999797
1 1 5.15109 5.64087 5.09845 3.46065 3.10224 -0.734087
6 2 4.75218 6.2109 5.93795 26.1031 1.75049 -12.0315
5 2 5.85651 6.20139 4.4702 -11.2415 -1.45628 -0.564786
ITEM: TIMESTEP
54200
ITEM: NUMBER OF ATOMS
6
ITEM: BOX BOUNDS pp pp pp
0.0000000000000000e+00 1.0000000000000000e+01
0.0000000000000000e+00 1.0000000000000000e+01
0.0000000000000000e+00 1.0000000000000000e+01
ITEM: ATOMS id type x y z vx vy vz
4 2 4.6612 3.89902 6.02762 -8.37248 -10.0394 5.69532
3 2 3.7282 4.2558 4.52293 -25.3912 4.77178 16.1215
2 1 4.57336 4.506 5.15177 -0.855902 1.3884 2.65592
1 1 5.42738 5.4946 4.84863 1.7472 -1.17283 -3.0396
6 2 6.27555 5.74053 5.47561 21.9606 -5.55582 -5.70884
5 2 5.32852 6.09706 3.97083 1.18235 8.25465 -11.5361
ITEM: TIMESTEP
54300
ITEM: NUMBER OF ATOMS
6
ITEM: BOX BOUNDS pp pp pp
0.0000000000000000e+00 1.0000000000000000e+01
0.0000000000000000e+00 1.0000000000000000e+01
0.0000000000000000e+00 1.0000000000000000e+01
ITEM: ATOMS id type x y z vx vy vz
4 2 4.51774 3.80124 5.92718 -9.77146 3.72692 -0.667227
3 2 3.68179 5.44454 5.76188 10.0728 8.67345 15.3254
2 1 4.54534 4.81955 5.45328 0.150528 2.32845 3.31767
1 1 5.45818 5.18258 4.54679 -0.56495 -2.39764 -3.18462
6 2 6.30885 4.52701 4.2493 -7.87915 -4.09795 -13.166
5 2 5.45206 6.20146 4.06253 12.5161 -7.47796 -3.07765
ITEM: TIMESTEP
54400
ITEM: NUMBER OF ATOMS
6
ITEM: BOX BOUNDS pp pp pp
0.0000000000000000e+00 1.0000000000000000e+01
0.0000000000000000e+00 1.0000000000000000e+01
0.0000000000000000e+00 1.0000000000000000e+01
ITEM: ATOMS id type x y z vx vy vz
4 2 3.86128 4.5862 5.9535 -5.32264 21.0816 1.00842
3 2 5.14876 5.80232 6.31576 7.45461 -7.43992 -4.07565
2 1 4.73776 5.09415 5.61627 2.91395 1.79634 2.18245
1 1 5.26269 4.90367 4.38729 -2.96201 -1.90918 -1.7331
6 2 4.87154 4.21107 3.66827 -3.6329 9.69679 2.73877
5 2 6.11545 5.42596 4.02174 2.07364 -21.994 -5.02593
ITEM: TIMESTEP
54500
ITEM: NUMBER OF ATOMS
6
ITEM: BOX BOUNDS pp pp pp
0.0000000000000000e+00 1.0000000000000000e+01
0.0000000000000000e+00 1.0000000000000000e+01
0.0000000000000000e+00 1.0000000000000000e+01
ITEM: ATOMS id type x y z vx vy vz
4 2 4.317 6.09583 5.91262 13.5112 19.7825 0.467605
3 2 5.83316 5.12403 6.33515 9.46767 -2.46703 11.1405
2 1 5.04923 5.33128 5.5839 2.539 0.285601 -3.10941
1 1 4.95038 4.66871 4.4169 -2.91867 -1.0854 2.6722
6 2 4.16527 4.8623 3.66368 -13.1894 10.4175 -8.99101
5 2 5.69162 3.91751 4.08088 -5.26525 -18.2025 2.59277
ITEM: TIMESTEP
54600
ITEM: NUMBER OF ATOMS
6
ITEM: BOX BOUNDS pp pp pp
0.0000000000000000e+00 1.0000000000000000e+01
0.0000000000000000e+00 1.0000000000000000e+01
0.0000000000000000e+00 1.0000000000000000e+01
ITEM: ATOMS id type x y z vx vy vz
4 2 5.83481 6.3349 5.07807 6.35164 -15.9585 -8.18138
3 2 5.75188 5.07312 6.38053 -8.82711 8.19363 -14.6223
2 1 5.4267 5.35951 5.37503 4.14705 -1.80693 -2.14249
1 1 4.57274 4.63717 4.62212 -4.33764 2.14801 2.34938
6 2 4.24242 4.96795 3.628 9.17808 -12.4911 13.451
5 2 4.17995 3.66318 4.94904 -4.4315 16.1916 6.88742
ITEM: TIMESTEP
54700
ITEM: NUMBER OF ATOMS
6
ITEM: BOX BOUNDS pp pp pp
0.0000000000000000e+00 1.0000000000000000e+01
0.0000000000000000e+00 1.0000000000000000e+01
0.0000000000000000e+00 1.0000000000000000e+01
ITEM: ATOMS id type x y z vx vy vz
4 2 6.4365 4.90645 4.43058 -1.89902 -17.2829 -11.041
3 2 5.95692 5.69581 6.00228 0.000310494 14.7598 1.2999
2 1 5.64893 5.16504 5.10999 -0.815655 -3.94054 -2.6645
1 1 4.35372 4.8322 4.89164 1.74231 4.05374 2.91229
6 2 4.01883 4.33538 3.9926 -7.11675 -16.0132 1.54588
5 2 3.55853 5.09483 5.55694 -2.0267 17.1874 5.24245
ITEM: TIMESTEP
54800
ITEM: NUMBER OF ATOMS
6
ITEM: BOX BOUNDS pp pp pp
0.0000000000000000e+00 1.0000000000000000e+01
0.0000000000000000e+00 1.0000000000000000e+01
0.0000000000000000e+00 1.0000000000000000e+01
ITEM: ATOMS id type x y z vx vy vz
4 2 6.10351 3.87189 4.92416 -6.46146 -1.01824 6.27819
3 2 6.34072 5.71357 4.5582 -6.54277 -8.63191 -12.4307
2 1 5.64679 4.89638 4.84811 -3.15764 -2.84645 -2.34703
1 1 4.35641 5.10447 5.15328 2.57664 2.97042 2.98127
6 2 3.65364 4.28577 5.42913 10.0359 3.6877 12.1698
5 2 3.86643 6.11818 5.07371 9.89162 4.48513 -13.5749
ITEM: TIMESTEP
54900
ITEM: NUMBER OF ATOMS
6
ITEM: BOX BOUNDS pp pp pp
0.0000000000000000e+00 1.0000000000000000e+01