ITEM: TIMESTEP
49600
ITEM: NUMBER OF ATOMS
6
ITEM: BOX BOUNDS pp pp pp
0.0000000000000000e+00 1.0000000000000000e+01
0.0000000000000000e+00 1.0000000000000000e+01
0.0000000000000000e+00 1.0000000000000000e+01
ITEM: ATOMS id type x y z vx vy vz
5 2 4.41422 4.88318 3.58607 6.99232 6.02901 13.3008
1 1 5.14083 4.77826 4.39263 -3.23082 -2.53723 -0.332571
6 2 6.06416 4.22964 4.18868 -18.6064 -9.89055 4.7888
3 2 3.92679 5.76749 5.78707 19.5769 9.57209 -7.05433
2 1 4.85964 5.22453 5.61 2.96933 2.20208 1.0464
4 2 5.59161 5.08603 6.40864 -4.84687 -1.71686 -19.5414
ITEM: TIMESTEP
49700
ITEM: NUMBER OF ATOMS
6
ITEM: BOX BOUNDS pp pp pp
0.0000000000000000e+00 1.0000000000000000e+01
0.0000000000000000e+00 1.0000000000000000e+01
0.0000000000000000e+00 1.0000000000000000e+01
ITEM: ATOMS id type x y z vx vy vz
5 2 4.52352 5.07763 3.54896 -2.37585 8.09413 -8.77039
1 1 4.76836 4.62721 4.50254 -2.43665 -0.418785 2.03542
6 2 4.62335 3.57162 4.65176 -20.3646 -5.26498 16.6517
3 2 5.36148 6.42574 5.36219 20.7277 6.99576 -6.82701
2 1 5.23471 5.37317 5.49655 2.05885 -0.159049 -3.06035
4 2 5.45742 4.92004 6.44964 6.51449 -2.93939 11.1589
ITEM: TIMESTEP
49800
ITEM: NUMBER OF ATOMS
6
ITEM: BOX BOUNDS pp pp pp
0.0000000000000000e+00 1.0000000000000000e+01
0.0000000000000000e+00 1.0000000000000000e+01
0.0000000000000000e+00 1.0000000000000000e+01
ITEM: ATOMS id type x y z vx vy vz
5 2 4.53067 4.37663 3.6724 -6.90779 -7.54544 10.4725
1 1 4.46707 4.72353 4.72206 -2.95457 0.767807 1.69385
6 2 3.54536 4.56566 5.33517 -2.13111 17.0904 -1.14201
3 2 6.46264 5.45828 4.67771 1.49297 -13.2853 -3.68867
2 1 5.52975 5.27279 5.27734 3.16487 -1.12072 -1.48728
4 2 5.50166 5.64292 6.32357 5.04003 7.9457 -8.10331
ITEM: TIMESTEP
49900
ITEM: NUMBER OF ATOMS
6
ITEM: BOX BOUNDS pp pp pp
0.0000000000000000e+00 1.0000000000000000e+01
0.0000000000000000e+00 1.0000000000000000e+01
0.0000000000000000e+00 1.0000000000000000e+01
ITEM: ATOMS id type x y z vx vy vz
5 2 3.92631 3.93488 4.88188 -9.84249 7.87407 20.3016
1 1 4.34274 4.91685 4.98121 -1.67578 2.58683 1.97759
6 2 3.67986 5.73936 5.07669 -1.71777 0.547857 -5.16338
3 2 6.30598 4.24669 4.92122 -3.6573 -1.59948 -1.03089
2 1 5.6593 5.08386 5.01773 2.80568 -2.4914 -1.39177
4 2 6.06588 6.07021 5.13463 1.75352 -7.95962 -21.088
ITEM: TIMESTEP
50000
ITEM: NUMBER OF ATOMS
6
ITEM: BOX BOUNDS pp pp pp
0.0000000000000000e+00 1.0000000000000000e+01
0.0000000000000000e+00 1.0000000000000000e+01
0.0000000000000000e+00 1.0000000000000000e+01
ITEM: ATOMS id type x y z vx vy vz
5 2 4.03271 4.884 6.21639 2.76924 11.9047 20.4221
1 1 4.42463 5.21735 5.23631 0.478532 3.79957 1.64506
6 2 3.78722 5.90705 4.63995 -8.54724 5.46369 -3.28909
3 2 6.19962 4.09323 5.36432 10.8093 -7.33828 -1.39711
2 1 5.57642 4.77975 4.76205 -1.23058 -3.39827 -1.2287
4 2 5.97037 5.14995 3.80056 3.93018 -14.812 -20.6972
ITEM: TIMESTEP
50100
ITEM: NUMBER OF ATOMS
6
ITEM: BOX BOUNDS pp pp pp
0.0000000000000000e+00 1.0000000000000000e+01
0.0000000000000000e+00 1.0000000000000000e+01
0.0000000000000000e+00 1.0000000000000000e+01
ITEM: ATOMS id type x y z vx vy vz
2 1 5.30723 4.49005 4.71158 -2.33326 -5.51277 -0.370443
6 2 3.67067 5.76866 5.00744 9.24686 2.84819 16.8176
4 2 4.85024 3.91265 3.90371 2.90253 -3.21142 16.6907
5 2 5.18668 6.0878 6.07398 -3.38788 2.96322 -18.8659
3 2 6.33065 4.20973 4.97981 -7.21573 -1.09876 -19.576
1 1 4.68976 5.51169 5.29151 2.20354 5.38679 0.784475
ITEM: TIMESTEP
50200
ITEM: NUMBER OF ATOMS
6
ITEM: BOX BOUNDS pp pp pp
0.0000000000000000e+00 1.0000000000000000e+01
0.0000000000000000e+00 1.0000000000000000e+01
0.0000000000000000e+00 1.0000000000000000e+01
ITEM: ATOMS id type x y z vx vy vz
2 1 4.99431 4.3633 4.80407 -2.30928 -1.81212 1.63907
6 2 4.31389 6.00441 5.93239 12.0975 18.5772 13.8233
4 2 4.31454 3.64485 5.23789 -7.45534 -9.94319 12.5091
5 2 5.67175 6.37199 4.76714 4.23798 17.8044 -9.29674
3 2 5.69354 3.99037 4.07689 -11.8726 -10.2511 -17.8785
1 1 5.00642 5.63569 5.19487 2.56041 0.453673 -1.56834
ITEM: TIMESTEP
50300
ITEM: NUMBER OF ATOMS
6
ITEM: BOX BOUNDS pp pp pp
0.0000000000000000e+00 1.0000000000000000e+01
0.0000000000000000e+00 1.0000000000000000e+01
0.0000000000000000e+00 1.0000000000000000e+01
ITEM: ATOMS id type x y z vx vy vz
2 1 4.67468 4.41809 5.01045 -3.7961 0.333015 3.37885
6 2 5.92507 5.96019 5.85914 9.91549 -0.170832 -12.4144
4 2 4.73024 3.72697 5.87974 -1.80361 -7.30373 -7.90245
5 2 5.28623 6.28158 4.12881 -1.08652 2.95505 6.98667
3 2 4.10535 4.05548 4.1162 -14.9971 -1.91281 15.1728
1 1 5.32159 5.57984 4.99105 4.46509 0.206786 -3.53348
ITEM: TIMESTEP
50400
ITEM: NUMBER OF ATOMS
6
ITEM: BOX BOUNDS pp pp pp
0.0000000000000000e+00 1.0000000000000000e+01
0.0000000000000000e+00 1.0000000000000000e+01
0.0000000000000000e+00 1.0000000000000000e+01
ITEM: ATOMS id type x y z vx vy vz
2 1 4.51946 4.64925 5.30946 -0.610499 2.77066 4.65798
6 2 6.47453 4.99202 4.58036 -3.5995 -4.21791 -11.8618
4 2 4.70144 3.69061 5.7603 -16.08 -0.281099 -6.94568
5 2 5.2749 6.30202 4.23814 12.1019 -1.3836 2.48739
3 2 3.51302 4.98506 5.41613 3.77837 -0.437702 15.9444
1 1 5.48377 5.35326 4.69112 0.929328 -2.24026 -4.62645
ITEM: TIMESTEP
50500
ITEM: NUMBER OF ATOMS
6
ITEM: BOX BOUNDS pp pp pp
0.0000000000000000e+00 1.0000000000000000e+01
0.0000000000000000e+00 1.0000000000000000e+01
0.0000000000000000e+00 1.0000000000000000e+01
ITEM: ATOMS id type x y z vx vy vz
2 1 4.6068 4.93214 5.53878 1.88981 3.02401 1.50335
6 2 5.41268 4.32992 3.62592 -7.6501 0.625725 -16.8238
4 2 3.95888 4.05321 5.71355 -17.1822 3.06288 3.80595
5 2 6.02996 5.95945 4.28489 15.6532 -0.756229 -12.4821
3 2 4.59402 5.66613 6.37192 12.4728 4.01261 12.1717
1 1 5.39377 5.06709 4.46168 -2.16622 -3.60683 -0.38484
ITEM: TIMESTEP
50600
ITEM: NUMBER OF ATOMS
6
ITEM: BOX BOUNDS pp pp pp
0.0000000000000000e+00 1.0000000000000000e+01
0.0000000000000000e+00 1.0000000000000000e+01
0.0000000000000000e+00 1.0000000000000000e+01
ITEM: ATOMS id type x y z vx vy vz
2 1 4.83146 5.20621 5.62171 2.26251 4.00612 0.603697
6 2 4.46478 4.74532 3.54391 6.14542 10.9429 7.27698
4 2 3.82116 5.53102 5.88166 21.7407 10.6113 3.1285
5 2 6.17193 4.46306 4.09996 -23.2046 -5.13846 -0.628984
3 2 5.55322 5.21864 6.43885 -6.7789 -8.14047 -4.87233
1 1 5.16781 4.79728 4.38142 -2.0865 -4.70058 -1.01526
ITEM: TIMESTEP
50700
ITEM: NUMBER OF ATOMS
6
ITEM: BOX BOUNDS pp pp pp
0.0000000000000000e+00 1.0000000000000000e+01
0.0000000000000000e+00 1.0000000000000000e+01
0.0000000000000000e+00 1.0000000000000000e+01
ITEM: ATOMS id type x y z vx vy vz
2 1 5.19149 5.37639 5.5283 3.48931 -0.980774 -3.49084
6 2 4.40017 5.04878 3.57352 -0.607923 5.1404 -8.06563
4 2 5.18389 6.46233 5.51455 16.7515 13.7652 -2.99367
5 2 4.81315 3.54159 4.4969 -13.9992 -13.8669 11.1702
3 2 5.57934 4.96996 6.45239 -0.0407975 0.813894 9.77526
1 1 4.81068 4.62168 4.46871 -3.66584 0.489623 2.66119
ITEM: TIMESTEP
50800
ITEM: NUMBER OF ATOMS
6
ITEM: BOX BOUNDS pp pp pp
0.0000000000000000e+00 1.0000000000000000e+01
0.0000000000000000e+00 1.0000000000000000e+01
0.0000000000000000e+00 1.0000000000000000e+01
ITEM: ATOMS id type x y z vx vy vz
2 1 5.5182 5.30516 5.29978 2.13229 -0.741142 -2.37268
6 2 4.42848 4.54174 3.5865 -5.52902 -4.52275 6.72563
4 2 6.41834 5.67279 4.75905 -1.99976 -20.1182 -5.65237
5 2 3.59011 4.32745 5.26094 -4.34768 21.3067 2.06008
3 2 5.57285 5.48632 6.40453 -1.50984 3.49468 -8.26134
1 1 4.48118 4.69243 4.69945 -1.00891 0.727678 2.80303
ITEM: TIMESTEP
50900
ITEM: NUMBER OF ATOMS
6
ITEM: BOX BOUNDS pp pp pp
0.0000000000000000e+00 1.0000000000000000e+01
0.0000000000000000e+00 1.0000000000000000e+01
0.0000000000000000e+00 1.0000000000000000e+01
ITEM: ATOMS id type x y z vx vy vz
2 1 5.66973 5.10889 5.05162 0.0749282 -2.13931 -3.03113
6 2 3.91185 3.96019 4.65395 1.53405 3.10923 14.3508
4 2 6.37552 4.34339 4.78829 -10.8713 -10.7391 3.60565
5 2 3.59605 5.62897 5.21763 10.8246 9.76877 -10.5581
3 2 6.07566 6.04471 5.34488 -0.797714 -0.924203 -14.1333
1 1 4.33391 4.89298 4.94813 -0.132798 2.03737 3.59633
ITEM: TIMESTEP
51000
ITEM: NUMBER OF ATOMS
6
ITEM: BOX BOUNDS pp pp pp
0.0000000000000000e+00 1.0000000000000000e+01
0.0000000000000000e+00 1.0000000000000000e+01
0.0000000000000000e+00 1.0000000000000000e+01
ITEM: ATOMS id type x y z vx vy vz
2 1 5.60954 4.8186 4.78622 -3.85449 -1.40137 -1.05329
6 2 3.91195 4.71862 6.10641 12.6393 6.19928 19.5755
4 2 6.19611 4.01223 5.26791 -0.207892 -10.446 7.6317
5 2 3.81863 5.99908 4.73813 4.41172 9.84662 -15.4466
3 2 6.1061 5.29171 3.90341 -6.26214 -9.39364 -16.7144
1 1 4.38791 5.17954 5.2126 2.96653 1.71974 1.46902
ITEM: TIMESTEP
51100
ITEM: NUMBER OF ATOMS
6
ITEM: BOX BOUNDS pp pp pp
0.0000000000000000e+00 1.0000000000000000e+01
0.0000000000000000e+00 1.0000000000000000e+01
0.0000000000000000e+00 1.0000000000000000e+01
ITEM: ATOMS id type x y z vx vy vz
2 1 5.34249 4.5079 4.70237 -1.95307 -2.50563 -0.0784237
5 2 3.69783 5.84717 4.90541 15.2474 -7.30117 6.4739
3 2 5.00945 4.05043 3.7721 -18.6818 1.28758 17.0965
6 2 5.01971 5.95086 6.22229 17.8809 3.57694 -20.1655
4 2 6.30416 4.13978 5.06781 -16.6994 12.0941 -1.69708
1 1 4.6551 5.49305 5.3005 2.14213 1.69518 -0.0648974
ITEM: TIMESTEP
51200
ITEM: NUMBER OF ATOMS
6
ITEM: BOX BOUNDS pp pp pp
0.0000000000000000e+00 1.0000000000000000e+01
0.0000000000000000e+00 1.0000000000000000e+01
0.0000000000000000e+00 1.0000000000000000e+01
ITEM: ATOMS id type x y z vx vy vz
2 1 5.02919 4.3604 4.8006 -2.90189 1.05727 2.78269
5 2 4.16743 6.0057 5.81998 -0.487253 0.237428 16.7698
3 2 4.23012 3.673 5.02989 -15.3602 7.12165 18.3071
6 2 5.75096 6.34573 4.97354 8.99043 -1.79077 -20.5078
4 2 5.85089 4.01292 4.18658 3.7657 2.96051 -18.6645
1 1 4.97105 5.63643 5.19871 3.16131 -1.77301 -2.439
ITEM: TIMESTEP
51300
ITEM: NUMBER OF ATOMS
6
ITEM: BOX BOUNDS pp pp pp
0.0000000000000000e+00 1.0000000000000000e+01
0.0000000000000000e+00 1.0000000000000000e+01
0.0000000000000000e+00 1.0000000000000000e+01
ITEM: ATOMS id type x y z vx vy vz
2 1 4.7094 4.40488 4.98077 -1.43365 1.5317 2.28291
5 2 5.70418 6.00761 5.96403 12.0119 -19.4199 -7.13389
3 2 4.62722 3.77896 5.90733 2.64715 8.10287 2.2948
6 2 5.37618 6.23187 4.10277 -7.4768 -11.0864 -7.60717
4 2 4.32679 3.9744 4.03011 -14.2877 14.5956 11.9852
1 1 5.28792 5.59568 5.01902 2.02993 -0.876462 -2.24422
ITEM: TIMESTEP
51400
ITEM: NUMBER OF ATOMS
6
ITEM: BOX BOUNDS pp pp pp
0.0000000000000000e+00 1.0000000000000000e+01
0.0000000000000000e+00 1.0000000000000000e+01
0.0000000000000000e+00 1.0000000000000000e+01
ITEM: ATOMS id type x y z vx vy vz
2 1 4.52981 4.62886 5.28248 -0.162596 3.25373 3.09468
5 2 6.51032 5.11249 4.82339 -5.03922 -15.6728 -10.9258
3 2 4.76485 3.73478 5.79727 4.72471 3.37946 -7.23603
6 2 5.2008 6.2638 4.20585 -2.74429 -5.70245 4.85942
4 2 3.48998 4.85462 5.16015 4.77004 17.2051 9.29849
1 1 5.47325 5.37399 4.71879 0.0189872 -3.18738 -2.75867
ITEM: TIMESTEP
51500
ITEM: NUMBER OF ATOMS
6
ITEM: BOX BOUNDS pp pp pp
0.0000000000000000e+00 1.0000000000000000e+01
0.0000000000000000e+00 1.0000000000000000e+01
0.0000000000000000e+00 1.0000000000000000e+01
ITEM: ATOMS id type x y z vx vy vz
2 1 4.60375 4.90852 5.51927 3.47334 2.51388 1.62794
5 2 5.59734 4.27608 3.77283 -11.3567 -11.0709 -8.83599
3 2 4.12465 3.91425 5.68752 -13.2414 -2.18896 -8.6082
6 2 5.88785 6.07253 4.30182 11.6134 -1.29966 0.408592
4 2 4.40446 5.74354 6.21233 12.9505 17.1071 6.51326
1 1 5.39525 5.09091 4.48302 -3.47047 -2.72766 -0.744904
ITEM: TIMESTEP
51600
ITEM: NUMBER OF ATOMS
6
ITEM: BOX BOUNDS pp pp pp
0.0000000000000000e+00 1.0000000000000000e+01
0.0000000000000000e+00 1.0000000000000000e+01
0.0000000000000000e+00 1.0000000000000000e+01
ITEM: ATOMS id type x y z vx vy vz
2 1 4.81065 5.18034 5.60585 3.11834 2.17344 0.804568
5 2 4.45653 4.65883 3.60196 1.76331 7.99758 13.6789
3 2 3.75273 5.24189 5.84643 16.6876 19.765 -0.175984
6 2 6.23785 4.73297 4.14585 -12.387 -13.0445 6.15719
4 2 5.56312 5.33442 6.38798 -7.37605 -7.56232 -12.4183
1 1 5.18869 4.8223 4.39579 -3.00823 -2.77395 -1.4123
ITEM: TIMESTEP
51700
ITEM: NUMBER OF ATOMS
6
ITEM: BOX BOUNDS pp pp pp
0.0000000000000000e+00 1.0000000000000000e+01
0.0000000000000000e+00 1.0000000000000000e+01
0.0000000000000000e+00 1.0000000000000000e+01
ITEM: ATOMS id type x y z vx vy vz
2 1 5.1545 5.36337 5.5271 4.58862 0.372673 -3.3642
5 2 4.35499 5.10659 3.63124 -5.08598 6.89305 -13.6648
3 2 4.89867 6.40721 5.58243 12.6439 11.2289 -4.38723
6 2 5.09687 3.58365 4.44734 -9.88104 -11.057 5.60027
4 2 5.6232 4.91686 6.3849 -0.101237 -4.5128 16.558
1 1 4.8479 4.63539 4.4692 -4.38517 -0.586853 3.01961
ITEM: TIMESTEP
51800
ITEM: NUMBER OF ATOMS
6
ITEM: BOX BOUNDS pp pp pp
0.0000000000000000e+00 1.0000000000000000e+01
0.0000000000000000e+00 1.0000000000000000e+01
0.0000000000000000e+00 1.0000000000000000e+01
ITEM: ATOMS id type x y z vx vy vz
2 1 5.48287 5.31944 5.31409 3.922 -1.81978 -2.02323
5 2 4.44925 4.73708 3.57927 -7.512 -11.9266 11.4316
3 2 6.27057 5.863 4.73816 7.55008 -10.3819 -3.87554
6 2 3.72452 4.13054 5.24703 -8.39677 11.3122 -2.47903
4 2 5.54567 5.28205 6.42482 -1.94603 10.9238 -8.7089
1 1 4.51817 4.67947 4.68695 -3.05723 1.82586 2.32802
ITEM: TIMESTEP
51900
ITEM: NUMBER OF ATOMS
6
ITEM: BOX BOUNDS pp pp pp
0.0000000000000000e+00 1.0000000000000000e+01
0.0000000000000000e+00 1.0000000000000000e+01
0.0000000000000000e+00 1.0000000000000000e+01
ITEM: ATOMS id type x y z vx vy vz
2 1 5.65095 5.12731 5.06572 1.4204 -2.50203 -3.34792
5 2 4.00151 4.01745 4.39568 -9.93017 0.405615 10.5844
3 2 6.36252 4.43761 4.68184 0.420245 -1.49649 11.1833
6 2 3.62342 5.53734 5.32714 0.480729 7.00065 -11.5268
4 2 5.97474 5.99355 5.60893 14.6657 -0.96941 -15.7444
1 1 4.35242 4.87384 4.93328 -1.89342 2.08743 3.80978
ITEM: TIMESTEP
52000
ITEM: NUMBER OF ATOMS
6
ITEM: BOX BOUNDS pp pp pp
0.0000000000000000e+00 1.0000000000000000e+01
0.0000000000000000e+00 1.0000000000000000e+01
0.0000000000000000e+00 1.0000000000000000e+01
ITEM: ATOMS id type x y z vx vy vz
2 1 5.61767 4.85436 4.81114 -2.34173 -3.46201 -3.03944
5 2 3.85833 4.51158 5.92754 -5.7916 7.56764 15.9766
3 2 6.1465 3.95722 5.20764 13.5034 -4.85779 4.68734
6 2 3.87764 6.06687 4.80497 -9.85625 6.17809 -6.36927
4 2 6.16928 5.46986 4.08252 11.3192 -11.6186 -15.7928
1 1 4.37819 5.14514 5.1871 1.57179 3.69117 3.16517
ITEM: TIMESTEP
52100
ITEM: NUMBER OF ATOMS
6
ITEM: BOX BOUNDS pp pp pp
0.0000000000000000e+00 1.0000000000000000e+01
0.0000000000000000e+00 1.0000000000000000e+01
0.0000000000000000e+00 1.0000000000000000e+01
ITEM: ATOMS id type x y z vx vy vz
2 1 5.3775 4.54254 4.69276 -1.36293 -4.73813 -1.54024
6 2 3.79732 5.93446 4.79182 5.57435 3.06935 20.5539
4 2 5.13719 4.19169 3.68063 -5.35305 -9.03497 17.3923
5 2 4.86471 5.80773 6.31701 1.98955 16.5626 -19.9749
3 2 6.22559 4.07636 5.18617 -6.31859 1.05392 -13.9648
1 1 4.62062 5.45656 5.30943 1.70765 3.76038 1.20401
ITEM: TIMESTEP
52200
ITEM: NUMBER OF ATOMS
6
ITEM: BOX BOUNDS pp pp pp
0.0000000000000000e+00 1.0000000000000000e+01
0.0000000000000000e+00 1.0000000000000000e+01
0.0000000000000000e+00 1.0000000000000000e+01
ITEM: ATOMS id type x y z vx vy vz
2 1 5.05279 4.3638 4.78265 -3.03146 -0.356915 0.407574
6 2 4.02692 6.02653 5.63483 1.90326 15.9884 11.4479
4 2 4.21646 3.68675 4.83298 -8.34086 -16.8221 11.9115
5 2 5.77058 6.33222 5.18792 8.75159 18.6678 -18.8429
3 2 5.98246 3.9946 4.36972 -3.39183 -15.3538 -10.879
1 1 4.94771 5.6328 5.21536 3.12192 0.148764 0.12637
ITEM: TIMESTEP
52300
ITEM: NUMBER OF ATOMS
6
ITEM: BOX BOUNDS pp pp pp
0.0000000000000000e+00 1.0000000000000000e+01
0.0000000000000000e+00 1.0000000000000000e+01
0.0000000000000000e+00 1.0000000000000000e+01
ITEM: ATOMS id type x y z vx vy vz
2 1 4.74581 4.38174 4.9601 -3.65908 -0.569678 2.35727
6 2 5.49315 6.09933 6.02131 17.2367 -1.87716 -8.43491
4 2 4.46103 3.78881 5.86061 2.16747 -2.44279 -5.57151
5 2 5.54539 6.19813 4.12756 -7.86776 -0.317938 4.16603
3 2 4.51973 3.87888 3.98859 -19.0344 -5.74402 10.5496
1 1 5.25277 5.62115 5.04021 4.28831 1.44093 -2.41678
ITEM: TIMESTEP
52400
ITEM: NUMBER OF ATOMS
6
ITEM: BOX BOUNDS pp pp pp
0.0000000000000000e+00 1.0000000000000000e+01
0.0000000000000000e+00 1.0000000000000000e+01
0.0000000000000000e+00 1.0000000000000000e+01
ITEM: ATOMS id type x y z vx vy vz
2 1 4.52494 4.58717 5.24817 -2.43252 1.09044 2.83562
6 2 6.50706 5.28791 4.98294 0.674653 -7.36105 -24.7621
4 2 4.74616 3.77289 5.91281 -3.19453 0.149539 1.5868
5 2 5.24503 6.21563 4.08252 9.30958 1.63527 -1.63487
3 2 3.48738 4.68058 5.01088 -0.162193 10.4045 16.8358
1 1 5.47646 5.4164 4.75289 1.87634 -1.49563 -2.16641
ITEM: TIMESTEP
52500
ITEM: NUMBER OF ATOMS
6
ITEM: BOX BOUNDS pp pp pp
0.0000000000000000e+00 1.0000000000000000e+01
0.0000000000000000e+00 1.0000000000000000e+01
0.0000000000000000e+00 1.0000000000000000e+01
ITEM: ATOMS id type x y z vx vy vz
2 1 4.58215 4.88132 5.51609 1.16287 2.12436 1.9864
6 2 5.86901 4.31565 3.85115 -10.4869 -12.3033 -18.3125
4 2 4.2374 3.86678 5.78909 -11.6285 -1.50455 4.54588
5 2 5.78251 6.12383 4.20669 13.289 2.22972 -7.07711
3 2 4.13947 5.71108 6.11503 9.10014 12.0257 11.6698
1 1 5.41567 5.11719 4.48725 -1.18584 -2.16191 -1.21652
ITEM: TIMESTEP
52600
ITEM: NUMBER OF ATOMS
6
ITEM: BOX BOUNDS pp pp pp
0.0000000000000000e+00 1.0000000000000000e+01
0.0000000000000000e+00 1.0000000000000000e+01
0.0000000000000000e+00 1.0000000000000000e+01
ITEM: ATOMS id type x y z vx vy vz
2 1 4.78641 5.14861 5.62305 1.80125 1.71885 2.04606
6 2 4.56228 4.47567 3.59101 -3.97178 9.99448 13.2866
4 2 3.74249 5.04269 5.92865 13.6571 22.7973 0.539211
5 2 6.26825 4.92461 4.07623 -14.2814 -18.1562 6.17017
3 2 5.43002 5.52843 6.40846 -1.35676 -6.77273 -8.29957
1 1 5.21354 4.85375 4.37674 -1.30168 -2.3787 -3.02763
ITEM: TIMESTEP
52700
ITEM: NUMBER OF ATOMS
6
ITEM: BOX BOUNDS pp pp pp
0.0000000000000000e+00 1.0000000000000000e+01
0.0000000000000000e+00 1.0000000000000000e+01
0.0000000000000000e+00 1.0000000000000000e+01
ITEM: ATOMS id type x y z vx vy vz
2 1 5.11862 5.36055 5.55512 3.28891 -0.0657178 -2.04304
6 2 4.29252 5.0142 3.61573 -7.15106 4.2241 -6.01772
4 2 4.6924 6.33757 5.74668 9.30499 21.2615 -9.20283
5 2 5.29198 3.65386 4.2911 -11.0154 -20.5346 7.68662
3 2 5.7049 5.00201 6.39728 6.36937 -9.96709 6.52974
1 1 4.88311 4.63878 4.44076 -3.07977 0.486669 2.12731
ITEM: TIMESTEP
52800
ITEM: NUMBER OF ATOMS
6
ITEM: BOX BOUNDS pp pp pp
0.0000000000000000e+00 1.0000000000000000e+01
0.0000000000000000e+00 1.0000000000000000e+01
0.0000000000000000e+00 1.0000000000000000e+01
ITEM: ATOMS id type x y z vx vy vz
2 1 5.47158 5.33345 5.34133 3.79297 -1.80417 -2.55923
6 2 4.36583 4.77968 3.56218 2.69298 -4.52543 4.06747
4 2 6.11811 6.11169 4.86766 -0.661114 -16.7893 -10.7066
5 2 3.85676 3.89599 5.10711 -3.23328 15.8935 6.77799
3 2 5.62113 5.20768 6.43826 -8.55496 5.74762 -5.36788
1 1 4.53182 4.66693 4.6609 -2.97421 1.77678 2.99805
ITEM: TIMESTEP
52900
ITEM: NUMBER OF ATOMS
6
ITEM: BOX BOUNDS pp pp pp
0.0000000000000000e+00 1.0000000000000000e+01
0.0000000000000000e+00 1.0000000000000000e+01
0.0000000000000000e+00 1.0000000000000000e+01
ITEM: ATOMS id type x y z vx vy vz
2 1 5.64954 5.14735 5.09282 -0.675224 -3.29943 -1.45823
6 2 4.01567 4.11033 4.22245 6.52572 -4.09038 14.3258
4 2 6.42819 4.62888 4.57582 -5.38048 -12.6921 -1.2056
5 2 3.55939 5.3596 5.42254 11.9871 16.8234 4.91397
3 2 5.98338 5.87792 5.79333 0.824439 7.5629 -19.1545
1 1 4.35178 4.85457 4.90614 -0.496034 2.66131 1.55225
ITEM: TIMESTEP
53000
ITEM: NUMBER OF ATOMS
6
ITEM: BOX BOUNDS pp pp pp
0.0000000000000000e+00 1.0000000000000000e+01
0.0000000000000000e+00 1.0000000000000000e+01
0.0000000000000000e+00 1.0000000000000000e+01
ITEM: ATOMS id type x y z vx vy vz
2 1 5.62968 4.87763 4.82875 -4.08791 -2.80094 -1.97398
6 2 3.74495 4.36407 5.70308 3.5419 -2.46157 16.3352
4 2 6.17191 3.95337 5.11085 -5.6562 -7.96065 12.8641
5 2 3.86749 6.06619 4.89157 4.43591 10.398 -9.72098
3 2 6.27656 5.62893 4.31121 -3.18302 0.367929 -18.6339
1 1 4.3654 5.12128 5.16999 4.1602 2.7721 1.90311
ITEM: TIMESTEP
53100
ITEM: NUMBER OF ATOMS
6
ITEM: BOX BOUNDS pp pp pp
0.0000000000000000e+00 1.0000000000000000e+01
0.0000000000000000e+00 1.0000000000000000e+01
0.0000000000000000e+00 1.0000000000000000e+01
ITEM: ATOMS id type x y z vx vy vz
2 1 5.40391 4.56783 4.69189 -4.27521 -3.68255 0.269236
5 2 3.83267 5.99855 4.76671 9.30381 -12.3601 6.82191
3 2 5.33624 4.38142 3.6295 -18.0502 2.00883 15.4305
6 2 4.65648 5.62836 6.37301 14.5648 2.91292 -15.0941
4 2 6.179 4.02946 5.24188 -8.26897 18.3308 -1.87887
1 1 4.59592 5.42896 5.30733 4.48086 2.76845 -0.712289
ITEM: TIMESTEP
53200
ITEM: NUMBER OF ATOMS
6
ITEM: BOX BOUNDS pp pp pp
0.0000000000000000e+00 1.0000000000000000e+01
0.0000000000000000e+00 1.0000000000000000e+01
0.0000000000000000e+00 1.0000000000000000e+01
ITEM: ATOMS id type x y z vx vy vz
2 1 5.08011 4.38149 4.76329 -4.36297 2.54175 3.16537
5 2 3.9406 6.0202 5.42957 -10.0783 -4.18452 7.22916
3 2 4.22122 3.72804 4.63895 -15.8597 -3.14384 13.1809
6 2 5.76061 6.2853 5.38615 17.8948 -0.640639 -17.5639
4 2 6.06309 3.98532 4.56511 9.33694 -1.42138 -12.4414
1 1 4.9213 5.61689 5.23519 4.2544 -1.75371 -2.36014
ITEM: TIMESTEP
53300
ITEM: NUMBER OF ATOMS
6
ITEM: BOX BOUNDS pp pp pp
0.0000000000000000e+00 1.0000000000000000e+01
0.0000000000000000e+00 1.0000000000000000e+01
0.0000000000000000e+00 1.0000000000000000e+01
ITEM: ATOMS id type x y z vx vy vz
2 1 4.77217 4.38456 4.9396 -3.27059 2.76292 1.83877
5 2 5.19223 6.1445 6.04156 10.2417 -10.7753 -7.04078
3 2 4.38155 3.82904 5.82261 10.4404 6.52422 4.86725
6 2 5.64279 6.13395 4.16809 -11.7596 -7.31235 -7.64964
4 2 4.80223 3.82966 3.96934 -11.9903 10.5491 10.4894
1 1 5.22645 5.62068 5.06042 3.52804 -2.6778 -1.89467
ITEM: TIMESTEP
53400
ITEM: NUMBER OF ATOMS
6
ITEM: BOX BOUNDS pp pp pp
0.0000000000000000e+00 1.0000000000000000e+01
0.0000000000000000e+00 1.0000000000000000e+01
0.0000000000000000e+00 1.0000000000000000e+01
ITEM: ATOMS id type x y z vx vy vz
2 1 4.54417 4.56198 5.20822 -1.02116 3.56712 3.43489
5 2 6.44818 5.41602 5.18992 5.22304 -12.0898 -12.713
3 2 4.78771 3.86204 5.96818 9.59565 6.49379 -6.66413
6 2 5.22017 6.12293 4.00919 -1.1433 -1.09638 6.15307
4 2 3.55798 4.58174 4.80581 -2.93741 13.6766 6.16383
1 1 5.45485 5.43943 4.79419 0.120032 -4.15323 -2.84239
ITEM: TIMESTEP
53500
ITEM: NUMBER OF ATOMS
6
ITEM: BOX BOUNDS pp pp pp
0.0000000000000000e+00 1.0000000000000000e+01
0.0000000000000000e+00 1.0000000000000000e+01
0.0000000000000000e+00 1.0000000000000000e+01
ITEM: ATOMS id type x y z vx vy vz
2 1 4.56475 4.86103 5.48009 2.20574 3.58581 0.199562
5 2 6.00538 4.331 4.02857 -16.178 -13.4453 -13.0534
3 2 4.44498 3.80466 5.81908 -5.87236 -7.44239 5.18578
6 2 5.57012 6.18335 4.16141 3.51867 5.78956 -1.58747
4 2 4.00795 5.68548 5.95723 9.11501 13.3169 10.895
1 1 5.43307 5.13855 4.52289 -1.41549 -3.43633 -0.320401
ITEM: TIMESTEP
53600
ITEM: NUMBER OF ATOMS
6
ITEM: BOX BOUNDS pp pp pp
0.0000000000000000e+00 1.0000000000000000e+01
0.0000000000000000e+00 1.0000000000000000e+01
0.0000000000000000e+00 1.0000000000000000e+01
ITEM: ATOMS id type x y z vx vy vz
2 1 4.76799 5.11942 5.60818 1.81314 3.51804 1.34382
5 2 4.61852 4.32188 3.68109 -7.08068 15.9305 6.31211
3 2 3.77483 4.79933 5.89504 13.6219 17.6523 1.72389
6 2 6.23373 5.19333 4.14034 -12.073 -16.3876 2.59174
4 2 5.3789 5.67047 6.33241 0.415255 -13.6274 -5.73102
1 1 5.2317 4.8818 4.38787 -1.38376 -3.81745 -1.75476
ITEM: TIMESTEP
53700
ITEM: NUMBER OF ATOMS
6
ITEM: BOX BOUNDS pp pp pp
0.0000000000000000e+00 1.0000000000000000e+01
0.0000000000000000e+00 1.0000000000000000e+01
0.0000000000000000e+00 1.0000000000000000e+01
ITEM: ATOMS id type x y z vx vy vz
2 1 5.07113 5.33583 5.56809 3.18153 1.36999 -0.971138
5 2 4.18819 4.98273 3.71896 -8.95001 2.13663 -13.5008
3 2 4.48268 6.22786 5.75616 7.95174 18.5527 -4.25955
6 2 5.50147 3.75295 4.25673 -13.4221 -21.7811 -0.240165
4 2 5.79957 5.02494 6.29361 12.259 -7.11609 8.39402
1 1 4.93143 4.6651 4.42992 -3.00014 -0.68119 1.77732
ITEM: TIMESTEP
53800
ITEM: NUMBER OF ATOMS
6
ITEM: BOX BOUNDS pp pp pp
0.0000000000000000e+00 1.0000000000000000e+01
0.0000000000000000e+00 1.0000000000000000e+01
0.0000000000000000e+00 1.0000000000000000e+01
ITEM: ATOMS id type x y z vx vy vz
2 1 5.43523 5.34933 5.36066 3.96507 0.546779 -0.750082
5 2 4.33504 4.9285 3.58363 -4.33584 -7.81021 9.25742
3 2 5.91682 6.24929 4.92336 15.2497 -10.2831 -3.55716
6 2 4.0576 3.76195 5.05896 -17.6414 14.3068 5.18348
4 2 5.65188 5.03559 6.41038 3.81087 8.34986 -7.52693
1 1 4.56821 4.65271 4.64147 -3.7203 -0.929735 0.468378
ITEM: TIMESTEP
53900
ITEM: NUMBER OF ATOMS
6
ITEM: BOX BOUNDS pp pp pp
0.0000000000000000e+00 1.0000000000000000e+01
0.0000000000000000e+00 1.0000000000000000e+01
0.0000000000000000e+00 1.0000000000000000e+01
ITEM: ATOMS id type x y z vx vy vz
2 1 5.63731 5.1572 5.11802 2.7395 -2.08316 -1.99875
5 2 4.11037 4.20263 4.06805 -10.7181 -8.5052 6.91226
3 2 6.41066 4.8432 4.45356 1.48442 -8.23449 8.15271
6 2 3.58893 5.16478 5.54495 1.07451 12.8871 -5.09109
4 2 5.91228 5.77316 5.94493 18.3506 8.36176 -13.0312
1 1 4.36102 4.84413 4.88117 -3.59477 1.70475 2.25532
ITEM: TIMESTEP
54000
ITEM: NUMBER OF ATOMS
6
ITEM: BOX BOUNDS pp pp pp
0.0000000000000000e+00 1.0000000000000000e+01
0.0000000000000000e+00 1.0000000000000000e+01
0.0000000000000000e+00 1.0000000000000000e+01
ITEM: ATOMS id type x y z vx vy vz
2 1 5.64157 4.90699 4.86173 1.17104 -2.75199 -1.87094
5 2 3.72903 4.25249 5.50085 -9.66527 10.4036 20.3809
3 2 6.14234 3.91918 4.96142 7.98293 -13.9398 3.07814
6 2 3.87787 6.09624 5.04043 -10.7241 11.3524 0.499834
4 2 6.28995 5.74233 4.53035 6.25102 -4.86026 -22.2669
1 1 4.35534 5.09211 5.13565 -0.654473 2.50392 1.72895
ITEM: TIMESTEP
54100
ITEM: NUMBER OF ATOMS
6
ITEM: BOX BOUNDS pp pp pp
0.0000000000000000e+00 1.0000000000000000e+01
0.0000000000000000e+00 1.0000000000000000e+01
0.0000000000000000e+00 1.0000000000000000e+01
ITEM: ATOMS id type x y z vx vy vz
2 1 5.4342 4.59109 4.69363 -0.262655 -5.25621 -1.59945
3 2 6.11371 3.9653 5.26359 -2.72532 6.92754 -14.9593
4 2 5.53535 4.58592 3.60457 -9.31324 -17.239 8.63401
5 2 4.45119 5.45089 6.3895 9.09951 18.236 -10.0616
6 2 3.88415 6.03729 4.75636 4.90215 -3.09252 18.4135
1 1 4.56731 5.40557 5.30534 0.0979126 4.8507 1.42938
ITEM: TIMESTEP
54200
ITEM: NUMBER OF ATOMS
6
ITEM: BOX BOUNDS pp pp pp
0.0000000000000000e+00 1.0000000000000000e+01
0.0000000000000000e+00 1.0000000000000000e+01
0.0000000000000000e+00 1.0000000000000000e+01
ITEM: ATOMS id type x y z vx vy vz
2 1 5.10464 4.38544 4.75526 -3.46771 -1.70295 2.65727
3 2 6.09923 3.94236 4.70527 3.66377 -13.6045 -20.5501
4 2 4.31602 3.76565 4.36559 -8.90074 -16.2077 4.21105
5 2 5.68449 6.23234 5.64098 16.6541 13.6389 -4.61093
6 2 3.89849 6.05344 5.30469 -8.36259 9.70447 11.4623
1 1 4.8957 5.61504 5.2435 3.21137 2.24582 -1.86106
ITEM: TIMESTEP
54300
ITEM: NUMBER OF ATOMS
6
ITEM: BOX BOUNDS pp pp pp
0.0000000000000000e+00 1.0000000000000000e+01
0.0000000000000000e+00 1.0000000000000000e+01
0.0000000000000000e+00 1.0000000000000000e+01
ITEM: ATOMS id type x y z vx vy vz
2 1 4.79627 4.3702 4.92177 -2.87214 -1.56448 2.09359
3 2 5.03527 3.74385 4.03962 -23.1902 -0.497299 1.86579
4 2 4.24192 3.79677 5.70764 7.34636 1.96388 1.95115
5 2 5.78372 6.18158 4.28821 -6.4203 -0.641051 2.7089
6 2 4.9558 6.22853 5.98355 21.2098 2.47716 -5.20365
1 1 5.20253 5.6339 5.07678 2.96062 1.28732 -2.20455
ITEM: TIMESTEP
54400
ITEM: NUMBER OF ATOMS
6
ITEM: BOX BOUNDS pp pp pp
0.0000000000000000e+00 1.0000000000000000e+01
0.0000000000000000e+00 1.0000000000000000e+01
0.0000000000000000e+00 1.0000000000000000e+01
ITEM: ATOMS id type x y z vx vy vz
2 1 4.54908 4.53308 5.18812 -2.67568 2.81155 3.64079
3 2 3.64479 4.3617 4.63683 -4.47034 7.82584 12.3765
4 2 4.70752 3.86565 6.00454 2.99568 -6.37369 -2.2143
5 2 5.31606 6.11516 3.9822 3.28824 6.33056 2.83692
6 2 6.35945 5.65683 5.34007 4.80459 -5.00149 -16.9163
1 1 5.44879 5.46694 4.81508 2.12028 -3.04495 -3.31206
ITEM: TIMESTEP
54500
ITEM: NUMBER OF ATOMS
6
ITEM: BOX BOUNDS pp pp pp
0.0000000000000000e+00 1.0000000000000000e+01
0.0000000000000000e+00 1.0000000000000000e+01
0.0000000000000000e+00 1.0000000000000000e+01
ITEM: ATOMS id type x y z vx vy vz
2 1 4.54337 4.83235 5.46367 3.53719 3.26665 2.06078
3 2 3.78469 5.54314 5.86255 -0.869897 10.6389 12.3131
4 2 4.50813 3.82647 5.93781 -13.3282 -2.20321 -0.29635
5 2 5.49548 6.16729 4.05098 7.04703 5.62585 -0.0297384
6 2 6.23016 4.47054 4.14156 -2.68995 -18.8143 -10.5753
1 1 5.45528 5.16699 4.53708 -2.71133 -2.8678 -2.17926
ITEM: TIMESTEP
54600
ITEM: NUMBER OF ATOMS
6
ITEM: BOX BOUNDS pp pp pp
0.0000000000000000e+00 1.0000000000000000e+01
0.0000000000000000e+00 1.0000000000000000e+01
0.0000000000000000e+00 1.0000000000000000e+01
ITEM: ATOMS id type x y z vx vy vz
2 1 4.73934 5.10747 5.61033 2.45139 2.99115 1.03994
3 2 5.19228 5.74941 6.35836 7.03385 -14.266 -10.9085
4 2 3.85701 4.59792 5.99842 5.59984 18.1439 -2.99026
5 2 6.14735 5.41953 4.02903 -6.94277 -17.1571 4.34752
6 2 4.8018 4.22098 3.66473 -6.86795 17.4587 8.65973
1 1 5.261 4.89351 4.38557 -2.35261 -3.34189 -0.96513
ITEM: TIMESTEP
54700
ITEM: NUMBER OF ATOMS
6
ITEM: BOX BOUNDS pp pp pp
0.0000000000000000e+00 1.0000000000000000e+01
0.0000000000000000e+00 1.0000000000000000e+01
0.0000000000000000e+00 1.0000000000000000e+01
ITEM: ATOMS id type x y z vx vy vz
2 1 5.03779 5.32892 5.59027 3.80413 1.56818 -3.92846
3 2 5.82986 5.12182 6.31098 10.5058 -15.5022 4.03457
4 2 4.32145 6.07545 5.89916 -1.48749 14.4446 -4.45042
5 2 5.66857 3.91857 4.09928 -4.70182 -17.7147 -0.195294
6 2 4.16099 4.84321 3.69489 -7.69972 11.893 -9.63143
1 1 4.96401 4.67449 4.40951 -3.52021 -0.990864 4.78801
ITEM: TIMESTEP
54800
ITEM: NUMBER OF ATOMS
6
ITEM: BOX BOUNDS pp pp pp
0.0000000000000000e+00 1.0000000000000000e+01
0.0000000000000000e+00 1.0000000000000000e+01
0.0000000000000000e+00 1.0000000000000000e+01
ITEM: ATOMS id type x y z vx vy vz
2 1 5.39948 5.36866 5.39607 2.62009 -1.52059 -3.7999
3 2 5.77302 5.00561 6.37372 -5.83911 1.80916 -7.14124
4 2 5.78072 6.36837 5.06969 5.90389 -13.8025 -7.27428
5 2 4.20004 3.62753 4.90619 -8.02709 15.71 15.8715
6 2 4.21868 4.98406 3.62438 9.04248 1.80471 6.71528
1 1 4.60303 4.63252 4.60627 -2.71074 1.05724 3.11416
ITEM: TIMESTEP
54900
ITEM: NUMBER OF ATOMS
6
ITEM: BOX BOUNDS pp pp pp
0.0000000000000000e+00 1.0000000000000000e+01