ITEM: TIMESTEP
49600
ITEM: NUMBER OF ATOMS
6
ITEM: BOX BOUNDS pp pp pp
0.0000000000000000e+00 1.0000000000000000e+01
0.0000000000000000e+00 1.0000000000000000e+01
0.0000000000000000e+00 1.0000000000000000e+01
ITEM: ATOMS id type x y z vx vy vz
5 2 4.41185 4.88813 3.5867 7.15807 6.07252 13.503
1 1 5.13794 4.77597 4.39286 -3.33784 -2.59502 -0.311464
6 2 6.05464 4.21598 4.18939 -19.1254 -10.0361 4.95623
3 2 3.93615 5.78123 5.7862 20.1126 9.68775 -7.25256
2 1 4.86256 5.22686 5.60978 3.06867 2.25411 1.03688
4 2 5.59376 5.08046 6.40794 -4.93794 -1.66191 -19.8508
ITEM: TIMESTEP
49700
ITEM: NUMBER OF ATOMS
6
ITEM: BOX BOUNDS pp pp pp
0.0000000000000000e+00 1.0000000000000000e+01
0.0000000000000000e+00 1.0000000000000000e+01
0.0000000000000000e+00 1.0000000000000000e+01
ITEM: ATOMS id type x y z vx vy vz
5 2 4.53152 5.06707 3.54636 -1.93077 7.78346 -9.10871
1 1 4.75416 4.62675 4.50977 -2.50767 -0.376275 2.14676
6 2 4.56499 3.58181 4.681 -20.9839 -4.09275 17.3087
3 2 5.41936 6.41643 5.33333 21.4283 6.02872 -7.31265
2 1 5.24896 5.37348 5.48931 2.0985 -0.211343 -3.17769
4 2 5.44941 4.93147 6.45207 6.36224 -2.71733 11.3974
ITEM: TIMESTEP
49800
ITEM: NUMBER OF ATOMS
6
ITEM: BOX BOUNDS pp pp pp
0.0000000000000000e+00 1.0000000000000000e+01
0.0000000000000000e+00 1.0000000000000000e+01
0.0000000000000000e+00 1.0000000000000000e+01
ITEM: ATOMS id type x y z vx vy vz
5 2 4.50358 4.31294 3.71426 -7.42852 -7.24637 11.4062
1 1 4.45393 4.73448 4.73749 -2.94655 0.88448 1.83637
6 2 3.52249 4.66969 5.35369 -1.24066 17.0527 -1.90492
3 2 6.48683 5.35535 4.65772 0.916431 -13.5593 -3.29727
2 1 5.54265 5.26189 5.26214 3.13507 -1.23126 -1.60127
4 2 5.53028 5.70489 6.28045 5.50635 7.88525 -9.00544
ITEM: TIMESTEP
49900
ITEM: NUMBER OF ATOMS
6
ITEM: BOX BOUNDS pp pp pp
0.0000000000000000e+00 1.0000000000000000e+01
0.0000000000000000e+00 1.0000000000000000e+01
0.0000000000000000e+00 1.0000000000000000e+01
ITEM: ATOMS id type x y z vx vy vz
5 2 3.88685 3.97016 5.03151 -8.73062 10.503 20.4797
1 1 4.34006 4.94032 5.00807 -1.55056 2.7404 2.07165
6 2 3.70985 5.79282 5.02567 -1.84604 -0.538278 -4.54769
3 2 6.27482 4.19304 4.97381 -3.78684 -0.962275 -1.44849
2 1 5.66199 5.06022 4.99077 2.71363 -2.62473 -1.51811
4 2 6.10648 6.03717 4.98461 0.504323 -10.3808 -21.0796
ITEM: TIMESTEP
50000
ITEM: NUMBER OF ATOMS
6
ITEM: BOX BOUNDS pp pp pp
0.0000000000000000e+00 1.0000000000000000e+01
0.0000000000000000e+00 1.0000000000000000e+01
0.0000000000000000e+00 1.0000000000000000e+01
ITEM: ATOMS id type x y z vx vy vz
2 1 5.55017 4.73817 4.74302 -1.54571 -3.42366 -1.05352
4 2 5.86454 4.97912 3.71411 1.31405 -17.1805 -19.8161
6 2 3.77328 5.88514 4.63382 -9.34912 5.19 -2.71068
3 2 6.21373 4.11544 5.37089 11.1883 -7.72912 -2.07389
5 2 4.14077 5.05699 6.29867 5.30981 13.9749 19.3306
1 1 4.45067 5.25872 5.25566 0.835488 3.90576 1.49579
ITEM: TIMESTEP
50100
ITEM: NUMBER OF ATOMS
6
ITEM: BOX BOUNDS pp pp pp
0.0000000000000000e+00 1.0000000000000000e+01
0.0000000000000000e+00 1.0000000000000000e+01
0.0000000000000000e+00 1.0000000000000000e+01
ITEM: ATOMS id type x y z vx vy vz
2 1 5.26033 4.45966 4.72135 -2.55463 -5.41011 0.112315
4 2 4.68275 3.80185 4.06499 4.9827 -0.974162 15.9767
6 2 3.68248 5.77612 5.14176 12.1836 4.51129 16.5239
3 2 6.31684 4.20069 4.84785 -10.4895 -2.88528 -19.5817
5 2 5.3511 6.19586 5.90624 -5.93716 0.33144 -17.9407
1 1 4.73709 5.54244 5.28209 2.49256 5.3276 0.309116
ITEM: TIMESTEP
50200
ITEM: NUMBER OF ATOMS
6
ITEM: BOX BOUNDS pp pp pp
0.0000000000000000e+00 1.0000000000000000e+01
0.0000000000000000e+00 1.0000000000000000e+01
0.0000000000000000e+00 1.0000000000000000e+01
ITEM: ATOMS id type x y z vx vy vz
2 1 4.9348 4.35878 4.83124 -2.49804 -1.53495 1.6818
4 2 4.36055 3.67235 5.4339 -5.27197 -9.45636 13.2352
6 2 4.57261 6.04816 6.03274 16.5332 18.1537 10.737
3 2 5.43706 3.94701 3.9747 -17.1347 -9.8068 -15.1192
5 2 5.62677 6.3451 4.57349 3.11621 17.6075 -9.4858
1 1 5.06565 5.64013 5.16766 2.72943 0.150433 -1.62869
ITEM: TIMESTEP
50300
ITEM: NUMBER OF ATOMS
6
ITEM: BOX BOUNDS pp pp pp
0.0000000000000000e+00 1.0000000000000000e+01
0.0000000000000000e+00 1.0000000000000000e+01
0.0000000000000000e+00 1.0000000000000000e+01
ITEM: ATOMS id type x y z vx vy vz
2 1 4.62227 4.45512 5.07039 -3.38218 0.940093 3.94448
4 2 4.79559 3.71995 5.88765 -5.76346 -7.28271 -7.98027
6 2 6.19875 5.81579 5.6457 7.64844 -1.4736 -13.2869
3 2 3.82688 4.19779 4.32374 -12.1729 -0.0910456 17.3178
5 2 5.22289 6.28692 4.11744 2.09023 3.06381 7.53281
1 1 5.37423 5.54313 4.9319 4.07013 -0.454738 -4.2452
ITEM: TIMESTEP
50400
ITEM: NUMBER OF ATOMS
6
ITEM: BOX BOUNDS pp pp pp
0.0000000000000000e+00 1.0000000000000000e+01
0.0000000000000000e+00 1.0000000000000000e+01
0.0000000000000000e+00 1.0000000000000000e+01
ITEM: ATOMS id type x y z vx vy vz
2 1 4.52279 4.71833 5.37772 0.24551 2.78023 4.52704
4 2 4.58012 3.70091 5.71981 -18.7983 4.23862 -4.23145
6 2 6.33365 4.7505 4.28578 -7.27836 -2.95054 -10.1676
3 2 3.64874 5.22979 5.71197 7.24565 -1.79825 14.142
5 2 5.3944 6.29679 4.28358 13.9663 -4.64795 0.402426
1 1 5.48103 5.28348 4.62233 0.162742 -2.34736 -4.53924
ITEM: TIMESTEP
50500
ITEM: NUMBER OF ATOMS
6
ITEM: BOX BOUNDS pp pp pp
0.0000000000000000e+00 1.0000000000000000e+01
0.0000000000000000e+00 1.0000000000000000e+01
0.0000000000000000e+00 1.0000000000000000e+01
ITEM: ATOMS id type x y z vx vy vz
2 1 4.65416 5.0064 5.57464 2.24899 3.05554 1.00023
4 2 3.77336 4.36566 5.76204 -16.3862 9.53514 5.58794
6 2 5.05187 4.37539 3.5465 -7.80654 3.10215 -15.9233
3 2 4.95233 5.61906 6.4507 13.7235 0.0910118 10.9647
5 2 6.22014 5.64925 4.23723 14.9406 -5.85056 -14.0654
1 1 5.34623 4.99278 4.42581 -2.62423 -3.63272 0.127326
ITEM: TIMESTEP
50600
ITEM: NUMBER OF ATOMS
6
ITEM: BOX BOUNDS pp pp pp
0.0000000000000000e+00 1.0000000000000000e+01
0.0000000000000000e+00 1.0000000000000000e+01
0.0000000000000000e+00 1.0000000000000000e+01
ITEM: ATOMS id type x y z vx vy vz
2 1 4.92748 5.27792 5.61251 3.47733 3.83566 0.0174779
4 2 4.10716 5.95886 5.8589 23.9778 3.31089 0.933295
6 2 4.38273 4.89462 3.55643 10.3815 6.0363 6.89698
3 2 5.62111 5.06465 6.42742 -10.0963 -3.00109 -4.49735
5 2 5.88438 4.03747 4.12264 -22.9878 2.64304 1.53505
1 1 5.07311 4.72577 4.39054 -3.58434 -4.59003 -0.425998
ITEM: TIMESTEP
50700
ITEM: NUMBER OF ATOMS
6
ITEM: BOX BOUNDS pp pp pp
0.0000000000000000e+00 1.0000000000000000e+01
0.0000000000000000e+00 1.0000000000000000e+01
0.0000000000000000e+00 1.0000000000000000e+01
ITEM: ATOMS id type x y z vx vy vz
2 1 5.31305 5.38069 5.46359 2.70785 -1.9318 -3.54731
4 2 5.6804 6.37972 5.25795 20.398 6.58541 -6.81288
6 2 4.44378 4.98334 3.55633 0.892714 0.960483 -8.55955
3 2 5.54346 5.04689 6.46541 0.548601 5.04463 9.34745
5 2 4.31842 3.62714 4.75305 -17.5504 -5.97663 14.8623
1 1 4.68832 4.61617 4.53381 -3.06778 1.37677 2.80568
ITEM: TIMESTEP
50800
ITEM: NUMBER OF ATOMS
6
ITEM: BOX BOUNDS pp pp pp
0.0000000000000000e+00 1.0000000000000000e+01
0.0000000000000000e+00 1.0000000000000000e+01
0.0000000000000000e+00 1.0000000000000000e+01
ITEM: ATOMS id type x y z vx vy vz
2 1 5.58905 5.24239 5.21407 1.68779 -1.05463 -2.85252
4 2 6.54312 5.13882 4.64774 -7.6564 -18.9306 -0.501735
6 2 4.29119 4.23414 3.79624 -7.11262 -3.01517 8.52257
3 2 5.71832 5.78845 6.18513 -0.214255 3.32334 -10.3792
5 2 3.46547 4.86495 5.37075 1.61642 20.2252 -3.61843
1 1 4.40963 4.75536 4.78609 -0.56604 0.920121 3.3541
ITEM: TIMESTEP
50900
ITEM: NUMBER OF ATOMS
6
ITEM: BOX BOUNDS pp pp pp
0.0000000000000000e+00 1.0000000000000000e+01
0.0000000000000000e+00 1.0000000000000000e+01
0.0000000000000000e+00 1.0000000000000000e+01
ITEM: ATOMS id type x y z vx vy vz
2 1 5.67813 5.01256 4.94311 -0.592765 -2.62807 -3.03486
4 2 6.25397 4.108 4.99183 -11.3758 -4.96637 5.70129
6 2 3.76912 4.09947 5.24629 5.97194 8.54855 13.2889
3 2 6.2183 5.9061 4.75111 -4.69693 -7.05948 -14.6185
5 2 3.71556 5.87473 5.0274 10.3728 1.07048 -11.6159
1 1 4.32568 4.98839 5.05564 0.569932 2.83006 3.6428
ITEM: TIMESTEP
51000
ITEM: NUMBER OF ATOMS
6
ITEM: BOX BOUNDS pp pp pp
0.0000000000000000e+00 1.0000000000000000e+01
0.0000000000000000e+00 1.0000000000000000e+01
0.0000000000000000e+00 1.0000000000000000e+01
ITEM: ATOMS id type x y z vx vy vz
2 1 5.52088 4.68281 4.72027 -4.39792 -0.879971 -0.259197
3 2 5.73862 4.72889 3.62557 -13.3879 -13.0603 -11.9072
5 2 3.79009 5.95153 4.69442 -1.1903 3.25993 -16.1674
4 2 6.22598 4.0597 5.30268 3.06142 -7.2933 8.3628
6 2 4.28434 5.28095 6.37438 20.3673 10.3128 13.6059
1 1 4.47604 5.31539 5.28013 3.65518 1.44903 0.771604
ITEM: TIMESTEP
51100
ITEM: NUMBER OF ATOMS
6
ITEM: BOX BOUNDS pp pp pp
0.0000000000000000e+00 1.0000000000000000e+01
0.0000000000000000e+00 1.0000000000000000e+01
0.0000000000000000e+00 1.0000000000000000e+01
ITEM: ATOMS id type x y z vx vy vz
2 1 5.20482 4.4215 4.73368 -2.31457 -2.01395 0.182418
3 2 4.5189 3.74312 4.22419 -10.9059 9.45856 21.6266
5 2 3.73739 5.87147 5.26831 17.7699 -6.09078 4.92868
4 2 6.25321 4.10693 4.70973 -17.4283 12.5913 -1.22087
6 2 5.50307 6.25555 5.75797 8.4192 -5.55259 -24.8325
1 1 4.79433 5.58039 5.2698 2.49458 1.14064 -0.224543
ITEM: TIMESTEP
51200
ITEM: NUMBER OF ATOMS
6
ITEM: BOX BOUNDS pp pp pp
0.0000000000000000e+00 1.0000000000000000e+01
0.0000000000000000e+00 1.0000000000000000e+01
0.0000000000000000e+00 1.0000000000000000e+01
ITEM: ATOMS id type x y z vx vy vz
2 1 4.88226 4.35264 4.87038 -2.10343 1.81671 2.76262
3 2 4.33147 3.74371 5.56702 -5.04584 10.066 20.4767
5 2 4.82965 6.10322 6.06202 12.252 -0.892448 15.7011
4 2 5.18898 3.91466 3.9315 -10.6996 3.87407 -19.6467
6 2 5.65446 6.2777 4.44458 -1.37778 -4.53497 -19.4693
1 1 5.11756 5.64403 5.12934 2.51222 -2.5311 -2.51605
ITEM: TIMESTEP
51300
ITEM: NUMBER OF ATOMS
6
ITEM: BOX BOUNDS pp pp pp
0.0000000000000000e+00 1.0000000000000000e+01
0.0000000000000000e+00 1.0000000000000000e+01
0.0000000000000000e+00 1.0000000000000000e+01
ITEM: ATOMS id type x y z vx vy vz
2 1 4.58805 4.49607 5.12107 -0.809934 2.41265 2.09658
3 2 4.80955 3.75689 5.93581 2.56993 6.51691 0.856687
5 2 6.33332 5.65513 5.48358 2.63915 -22.6082 -10.6318
4 2 3.68346 4.32001 4.49659 -3.80323 17.7669 16.1255
6 2 5.1997 6.25159 4.07276 -10.066 -7.65049 -2.76282
1 1 5.40996 5.50527 4.88002 1.5367 -1.91123 -2.39765
ITEM: TIMESTEP
51400
ITEM: NUMBER OF ATOMS
6
ITEM: BOX BOUNDS pp pp pp
0.0000000000000000e+00 1.0000000000000000e+01
0.0000000000000000e+00 1.0000000000000000e+01
0.0000000000000000e+00 1.0000000000000000e+01
ITEM: ATOMS id type x y z vx vy vz
2 1 4.54637 4.77731 5.42759 1.34679 3.12532 2.68762
3 2 4.50293 3.758 5.70913 -1.50974 5.57973 -9.88991
5 2 6.21287 4.56244 4.18838 -15.417 -10.9441 -6.01894
4 2 3.7649 5.41214 5.79396 16.0606 13.2925 4.94153
6 2 5.46964 6.25325 4.30779 1.67162 -7.43521 6.29006
1 1 5.458 5.22385 4.57262 -1.41438 -3.16668 -2.29511
ITEM: TIMESTEP
51500
ITEM: NUMBER OF ATOMS
6
ITEM: BOX BOUNDS pp pp pp
0.0000000000000000e+00 1.0000000000000000e+01
0.0000000000000000e+00 1.0000000000000000e+01
0.0000000000000000e+00 1.0000000000000000e+01
ITEM: ATOMS id type x y z vx vy vz
2 1 4.7043 5.05443 5.58706 3.60954 1.51805 0.232003
3 2 3.72968 4.54489 5.77037 -15.8056 11.9075 -6.6807
5 2 4.83852 4.36459 3.60288 -15.531 -3.51468 -5.95975
4 2 5.17367 5.65372 6.38283 20.2778 7.72294 4.31338
6 2 6.26996 5.44055 4.21421 11.1317 -11.8396 -1.50192
1 1 5.29491 4.94522 4.41559 -3.61566 -1.87691 0.592848
ITEM: TIMESTEP
51600
ITEM: NUMBER OF ATOMS
6
ITEM: BOX BOUNDS pp pp pp
0.0000000000000000e+00 1.0000000000000000e+01
0.0000000000000000e+00 1.0000000000000000e+01
0.0000000000000000e+00 1.0000000000000000e+01
ITEM: ATOMS id type x y z vx vy vz
2 1 4.99915 5.31121 5.58146 3.74416 1.541 -0.368466
3 2 4.25578 6.08042 5.78739 25.2951 5.48155 -4.15773
5 2 4.31716 4.99433 3.62198 7.26833 1.565 13.2872
4 2 5.69358 4.99063 6.37082 -11.1812 2.75767 -11.7712
6 2 5.71993 3.90737 4.2057 -17.1854 -2.33108 9.64031
1 1 5.00219 4.69105 4.41987 -4.09636 -2.16815 -0.218858
ITEM: TIMESTEP
51700
ITEM: NUMBER OF ATOMS
6
ITEM: BOX BOUNDS pp pp pp
0.0000000000000000e+00 1.0000000000000000e+01
0.0000000000000000e+00 1.0000000000000000e+01
0.0000000000000000e+00 1.0000000000000000e+01
ITEM: ATOMS id type x y z vx vy vz
2 1 5.37417 5.36043 5.40504 3.76862 -1.98839 -3.84055
3 2 5.80519 6.29137 5.08737 15.4549 -0.356282 -8.79438
5 2 4.46337 4.97876 3.58326 -1.30641 -1.14036 -15.2012
4 2 5.53376 5.05556 6.42058 -1.84461 6.7091 15.7633
6 2 4.18896 3.71491 4.94445 -12.968 -1.29969 9.97049
1 1 4.62676 4.63613 4.59212 -3.71288 1.66003 3.69467
ITEM: TIMESTEP
51800
ITEM: NUMBER OF ATOMS
6
ITEM: BOX BOUNDS pp pp pp
0.0000000000000000e+00 1.0000000000000000e+01
0.0000000000000000e+00 1.0000000000000000e+01
0.0000000000000000e+00 1.0000000000000000e+01
ITEM: ATOMS id type x y z vx vy vz
2 1 5.60659 5.20325 5.15725 2.29587 -2.52123 -1.96241
3 2 6.48423 4.88568 4.54238 1.99839 -11.9405 0.456612
5 2 4.23419 4.19456 3.92142 -12.2044 -2.05399 17.4281
4 2 5.76954 5.82342 6.06891 4.00303 7.40904 -16.4989
6 2 3.50529 5.10169 5.44804 -3.08607 8.363 -6.12532
1 1 4.39418 4.79626 4.84452 -1.51633 2.37205 2.36015
ITEM: TIMESTEP
51900
ITEM: NUMBER OF ATOMS
6
ITEM: BOX BOUNDS pp pp pp
0.0000000000000000e+00 1.0000000000000000e+01
0.0000000000000000e+00 1.0000000000000000e+01
0.0000000000000000e+00 1.0000000000000000e+01
ITEM: ATOMS id type x y z vx vy vz
2 1 5.65533 4.95285 4.88659 -0.10921 -3.95781 -3.19008
3 2 6.15173 4.02696 5.0544 3.97551 9.05605 2.99227
5 2 3.76835 4.19801 5.41287 -3.76288 9.92745 10.6848
4 2 6.21121 5.81957 4.58371 7.04276 -15.5724 -14.7726
6 2 3.83631 5.96572 4.96934 -1.87168 -5.81625 -7.47819
1 1 4.34759 5.04626 5.11185 -0.342592 4.15966 3.90959
ITEM: TIMESTEP
52000
ITEM: NUMBER OF ATOMS
6
ITEM: BOX BOUNDS pp pp pp
0.0000000000000000e+00 1.0000000000000000e+01
0.0000000000000000e+00 1.0000000000000000e+01
0.0000000000000000e+00 1.0000000000000000e+01
ITEM: ATOMS id type x y z vx vy vz
2 1 5.46465 4.6325 4.70324 -4.06085 -3.4102 -0.843609
4 2 5.54692 4.55607 3.61011 -0.383946 -19.5322 -10.8238
6 2 3.83524 5.98521 4.68306 -13.2448 5.68601 -0.0908383
3 2 6.19039 4.03484 5.29874 15.2059 -5.98491 -3.19975
5 2 4.48442 5.42771 6.39704 5.41229 14.9604 11.4207
1 1 4.53077 5.36715 5.29783 3.47429 3.81895 1.06966
ITEM: TIMESTEP
52100
ITEM: NUMBER OF ATOMS
6
ITEM: BOX BOUNDS pp pp pp
0.0000000000000000e+00 1.0000000000000000e+01
0.0000000000000000e+00 1.0000000000000000e+01
0.0000000000000000e+00 1.0000000000000000e+01
ITEM: ATOMS id type x y z vx vy vz
2 1 5.1413 4.39981 4.74297 -2.73422 -4.12385 -0.329575
4 2 4.3398 3.70912 4.43468 6.24756 1.48116 16.6891
6 2 3.83358 5.95443 5.31802 20.1786 10.9939 12.4767
3 2 6.1656 4.04357 4.64786 -16.761 -4.3536 -9.75259
5 2 5.65919 6.29016 5.56402 -12.1743 4.52461 -18.6883
1 1 4.85905 5.60038 5.26015 2.94479 3.06259 0.268736
ITEM: TIMESTEP
52200
ITEM: NUMBER OF ATOMS
6
ITEM: BOX BOUNDS pp pp pp
0.0000000000000000e+00 1.0000000000000000e+01
0.0000000000000000e+00 1.0000000000000000e+01
0.0000000000000000e+00 1.0000000000000000e+01
ITEM: ATOMS id type x y z vx vy vz
2 1 4.81765 4.35658 4.90804 -3.89266 0.796884 1.32239
4 2 4.35546 3.79566 5.6977 -0.68192 -13.7672 11.9919
6 2 5.04287 6.14782 6.03764 15.7253 13.0148 4.80862
3 2 4.9625 3.86925 3.95461 -17.088 -12.5017 -3.13269
5 2 5.65425 6.22738 4.32419 -4.89085 15.2028 -16.8122
1 1 5.18128 5.64002 5.09092 4.47469 -0.960426 -1.05851
ITEM: TIMESTEP
52300
ITEM: NUMBER OF ATOMS
6
ITEM: BOX BOUNDS pp pp pp
0.0000000000000000e+00 1.0000000000000000e+01
0.0000000000000000e+00 1.0000000000000000e+01
0.0000000000000000e+00 1.0000000000000000e+01
ITEM: ATOMS id type x y z vx vy vz
2 1 4.55739 4.52817 5.17257 -2.27304 1.09463 3.67712
4 2 4.75265 3.78324 5.98248 -9.47603 -0.413952 -3.83476
6 2 6.46584 5.52166 5.27973 6.59684 -9.0782 -15.5778
3 2 3.53973 4.45009 4.71861 -9.4767 2.64699 18.6196
5 2 5.23409 6.20594 4.00464 3.7946 0.266127 7.1242
1 1 5.44346 5.47507 4.8288 2.9915 -0.542522 -4.20844
ITEM: TIMESTEP
52400
ITEM: NUMBER OF ATOMS
6
ITEM: BOX BOUNDS pp pp pp
0.0000000000000000e+00 1.0000000000000000e+01
0.0000000000000000e+00 1.0000000000000000e+01
0.0000000000000000e+00 1.0000000000000000e+01
ITEM: ATOMS id type x y z vx vy vz
2 1 4.5496 4.82923 5.47526 -1.18775 2.52815 3.17273
4 2 4.40247 3.81625 5.80069 -6.26389 4.60455 2.77849
6 2 6.0673 4.44739 4.04171 -17.5671 2.98129 -15.5895
3 2 3.90498 5.53578 5.95538 16.4627 3.17615 9.90234
5 2 5.58309 6.18195 4.19923 11.8376 -7.10941 -7.1865
1 1 5.45414 5.1723 4.52514 0.812685 -2.83468 -2.32555
ITEM: TIMESTEP
52500
ITEM: NUMBER OF ATOMS
6
ITEM: BOX BOUNDS pp pp pp
0.0000000000000000e+00 1.0000000000000000e+01
0.0000000000000000e+00 1.0000000000000000e+01
0.0000000000000000e+00 1.0000000000000000e+01
ITEM: ATOMS id type x y z vx vy vz
2 1 4.74438 5.10051 5.61643 1.7567 2.32177 0.638759
4 2 3.72283 4.79557 5.90132 -9.45076 14.096 6.53028
6 2 4.71732 4.36311 3.5695 -17.6944 1.81 -13.8527
3 2 5.3071 5.65825 6.3971 15.6257 1.35548 8.01693
5 2 6.27667 5.1889 4.08763 10.6834 -13.5972 -9.36675
1 1 5.25382 4.89897 4.38745 -1.68654 -2.62927 0.0890156
ITEM: TIMESTEP
52600
ITEM: NUMBER OF ATOMS
6
ITEM: BOX BOUNDS pp pp pp
0.0000000000000000e+00 1.0000000000000000e+01
0.0000000000000000e+00 1.0000000000000000e+01
0.0000000000000000e+00 1.0000000000000000e+01
ITEM: ATOMS id type x y z vx vy vz
2 1 5.064 5.33858 5.57988 2.86348 1.81991 0.645652
4 2 4.49371 6.24947 5.80265 26.1206 1.90889 -6.32072
6 2 4.26217 4.96064 3.61496 6.42308 2.93248 13.5209
3 2 5.73936 5.05091 6.38197 -6.07334 4.447 -9.28237
5 2 5.48704 3.72769 4.20926 -21.6786 1.36778 11.4709
1 1 4.93768 4.66234 4.41952 -3.2656 -2.71418 -1.43355
ITEM: TIMESTEP
52700
ITEM: NUMBER OF ATOMS
6
ITEM: BOX BOUNDS pp pp pp
0.0000000000000000e+00 1.0000000000000000e+01
0.0000000000000000e+00 1.0000000000000000e+01
0.0000000000000000e+00 1.0000000000000000e+01
ITEM: ATOMS id type x y z vx vy vz
2 1 5.44211 5.34908 5.36785 1.89428 -1.88318 -2.43081
4 2 5.98542 6.20573 5.00318 18.0976 -1.56065 -20.0978
6 2 4.37959 4.85055 3.5843 -4.08007 -2.91966 -7.40109
3 2 5.63359 5.16466 6.41908 -1.31817 0.146923 10.088
5 2 4.00437 3.82001 5.02557 -17.8991 2.51211 16.8242
1 1 4.55784 4.64745 4.6296 -1.45791 2.03602 2.48004
ITEM: TIMESTEP
52800
ITEM: NUMBER OF ATOMS
6
ITEM: BOX BOUNDS pp pp pp
0.0000000000000000e+00 1.0000000000000000e+01
0.0000000000000000e+00 1.0000000000000000e+01
0.0000000000000000e+00 1.0000000000000000e+01
ITEM: ATOMS id type x y z vx vy vz
2 1 5.64131 5.15615 5.11745 1.20316 -3.13903 -1.83968
4 2 6.48513 4.74602 4.50373 -12.4408 -13.3993 -0.841582
6 2 4.03272 4.11084 4.10875 -1.95378 -5.71616 12.0351
3 2 5.94604 5.89302 5.89754 -2.39353 8.00796 -16.032
5 2 3.49467 5.25272 5.46496 8.05181 12.097 -1.53459
1 1 4.36237 4.8436 4.88479 -0.470002 3.056 2.3745
ITEM: TIMESTEP
52900
ITEM: NUMBER OF ATOMS
6
ITEM: BOX BOUNDS pp pp pp
0.0000000000000000e+00 1.0000000000000000e+01
0.0000000000000000e+00 1.0000000000000000e+01
0.0000000000000000e+00 1.0000000000000000e+01
ITEM: ATOMS id type x y z vx vy vz
2 1 5.64455 4.89487 4.84094 -2.14658 -2.11487 -1.13905
4 2 6.14261 3.97739 5.06394 -6.65939 -1.48005 3.88629
6 2 3.73748 4.36318 5.61388 15.7539 8.87927 11.8916
3 2 6.26585 5.64334 4.40016 -10.5516 -14.8348 -18.1406
5 2 3.84574 6.02134 4.94102 14.7904 4.16221 -6.95989
1 1 4.35634 5.10466 5.15761 1.02764 2.38958 1.9214
ITEM: TIMESTEP
53000
ITEM: NUMBER OF ATOMS
6
ITEM: BOX BOUNDS pp pp pp
0.0000000000000000e+00 1.0000000000000000e+01
0.0000000000000000e+00 1.0000000000000000e+01
0.0000000000000000e+00 1.0000000000000000e+01
ITEM: ATOMS id type x y z vx vy vz
2 1 5.4058 4.56974 4.69735 -5.56736 -1.43327 1.45702
3 2 5.4 4.41016 3.5948 -19.013 -8.51967 -10.8314
5 2 3.81818 5.98427 4.74779 -5.60334 -0.394492 -7.77299
4 2 6.20891 4.0143 5.21773 6.24026 4.62749 8.05443
6 2 4.62568 5.58764 6.40417 17.3319 5.7766 10.9617
1 1 4.58997 5.43053 5.30578 5.65498 1.30824 -1.49157
ITEM: TIMESTEP
53100
ITEM: NUMBER OF ATOMS
6
ITEM: BOX BOUNDS pp pp pp
0.0000000000000000e+00 1.0000000000000000e+01
0.0000000000000000e+00 1.0000000000000000e+01
0.0000000000000000e+00 1.0000000000000000e+01
ITEM: ATOMS id type x y z vx vy vz
2 1 5.0763 4.37899 4.77064 -3.18568 -1.04948 2.96579
3 2 4.22492 3.72062 4.61579 0.209797 18.6017 17.1584
5 2 3.93515 6.04729 5.44437 17.9197 -7.75329 7.13878
4 2 6.06909 3.97773 4.53604 -15.6163 14.871 -9.35298
6 2 5.76796 6.29205 5.38825 -2.28404 -13.6398 -16.1674
1 1 4.92415 5.61782 5.23082 3.16645 0.0357518 -2.86315
ITEM: TIMESTEP
53200
ITEM: NUMBER OF ATOMS
6
ITEM: BOX BOUNDS pp pp pp
0.0000000000000000e+00 1.0000000000000000e+01
0.0000000000000000e+00 1.0000000000000000e+01
0.0000000000000000e+00 1.0000000000000000e+01
ITEM: ATOMS id type x y z vx vy vz
2 1 4.75559 4.38109 4.94733 -1.64397 4.70812 3.11334
3 2 4.41628 3.85434 5.82896 2.98524 0.532335 16.3299
5 2 5.23826 6.14357 5.98695 9.76687 -6.85099 12.3072
4 2 4.75468 3.86295 4.00801 -16.9506 1.02445 -11.6393
6 2 5.599 6.1591 4.18842 -6.90708 -4.89006 -18.3785
1 1 5.24392 5.6172 5.05178 2.57595 -3.85346 -2.99747
ITEM: TIMESTEP
53300
ITEM: NUMBER OF ATOMS
6
ITEM: BOX BOUNDS pp pp pp
0.0000000000000000e+00 1.0000000000000000e+01
0.0000000000000000e+00 1.0000000000000000e+01
0.0000000000000000e+00 1.0000000000000000e+01
ITEM: ATOMS id type x y z vx vy vz
2 1 4.53901 4.58882 5.22942 -0.211574 4.92969 3.07419
3 2 4.79335 3.80259 5.97834 4.51642 1.59473 -6.26071
5 2 6.51322 5.35326 5.14534 -4.43329 -13.6345 -8.05792
4 2 3.47703 4.61859 4.86842 6.08643 12.8884 10.6676
6 2 5.18605 6.16481 3.99857 -7.02161 -0.539727 6.13737
1 1 5.46374 5.41624 4.77151 0.283079 -4.95562 -3.28284
ITEM: TIMESTEP
53400
ITEM: NUMBER OF ATOMS
6
ITEM: BOX BOUNDS pp pp pp
0.0000000000000000e+00 1.0000000000000000e+01
0.0000000000000000e+00 1.0000000000000000e+01
0.0000000000000000e+00 1.0000000000000000e+01
ITEM: ATOMS id type x y z vx vy vz
2 1 4.57667 4.8864 5.50119 2.06206 3.19493 2.18847
3 2 4.36423 3.89069 5.80794 -0.0264559 9.31889 -11.2267
5 2 5.85845 4.29516 3.96654 -16.3101 -4.07181 -7.05114
4 2 4.14284 5.70659 6.02334 16.1667 7.53483 1.29034
6 2 5.61421 6.11227 4.17257 7.13345 -10.475 3.97826
1 1 5.42523 5.11317 4.50144 -2.64645 -3.38853 -1.09673
ITEM: TIMESTEP
53500
ITEM: NUMBER OF ATOMS
6
ITEM: BOX BOUNDS pp pp pp
0.0000000000000000e+00 1.0000000000000000e+01
0.0000000000000000e+00 1.0000000000000000e+01
0.0000000000000000e+00 1.0000000000000000e+01
ITEM: ATOMS id type x y z vx vy vz
2 1 4.79641 5.15559 5.61161 3.52517 2.89822 -1.94433
3 2 3.74053 4.96908 5.90253 -11.8414 10.7651 6.06245
5 2 4.49165 4.42688 3.65787 -17.3778 10.4993 -3.97695
4 2 5.52476 5.57449 6.32295 15.4684 -3.00704 5.48386
6 2 6.25038 5.03102 4.0753 9.50513 -9.51841 -1.79344
1 1 5.20317 4.84426 4.392 -3.16887 -3.63159 1.45961
ITEM: TIMESTEP
53600
ITEM: NUMBER OF ATOMS
6
ITEM: BOX BOUNDS pp pp pp
0.0000000000000000e+00 1.0000000000000000e+01
0.0000000000000000e+00 1.0000000000000000e+01
0.0000000000000000e+00 1.0000000000000000e+01
ITEM: ATOMS id type x y z vx vy vz
2 1 5.12518 5.3549 5.54353 4.541 2.23022 -0.666906
3 2 4.70291 6.34987 5.67554 21.101 -7.54432 -4.81778
5 2 4.19082 5.0454 3.69957 10.9386 1.26852 6.21586
4 2 5.80426 4.96019 6.31363 -9.14331 4.76994 -7.0551
6 2 5.29796 3.64971 4.36454 -19.0204 7.60508 8.4229
1 1 4.87536 4.64463 4.45215 -4.86627 -2.74207 0.434793
ITEM: TIMESTEP
53700
ITEM: NUMBER OF ATOMS
6
ITEM: BOX BOUNDS pp pp pp
0.0000000000000000e+00 1.0000000000000000e+01
0.0000000000000000e+00 1.0000000000000000e+01
0.0000000000000000e+00 1.0000000000000000e+01
ITEM: ATOMS id type x y z vx vy vz
2 1 5.48194 5.32855 5.3178 2.65032 -0.526526 -2.47865
3 2 6.11064 6.02595 4.78388 16.9108 -6.89912 -14.7189
5 2 4.34391 4.86473 3.64181 -9.28544 -6.73022 -11.4219
4 2 5.65731 5.15173 6.35807 4.37943 0.0445675 11.0051
6 2 3.86887 3.99328 5.22502 -23.0218 7.22589 9.33653
1 1 4.51988 4.66842 4.68161 -1.72577 1.06016 2.96531
ITEM: TIMESTEP
53800
ITEM: NUMBER OF ATOMS
6
ITEM: BOX BOUNDS pp pp pp
0.0000000000000000e+00 1.0000000000000000e+01
0.0000000000000000e+00 1.0000000000000000e+01
0.0000000000000000e+00 1.0000000000000000e+01
ITEM: ATOMS id type x y z vx vy vz
2 1 5.65153 5.10984 5.06668 2.92602 -1.48382 -2.89544
3 2 6.37183 4.52065 4.45776 2.88413 -10.2817 6.33328
5 2 3.96381 4.07956 4.26538 -8.08874 3.75646 14.4714
4 2 6.00661 5.92341 5.74928 8.44493 -1.82421 -14.5692
6 2 3.60739 5.47878 5.51018 -0.235833 13.6516 -9.96628
1 1 4.35289 4.88993 4.93493 -3.17816 1.03886 3.20853
ITEM: TIMESTEP
53900
ITEM: NUMBER OF ATOMS
6
ITEM: BOX BOUNDS pp pp pp
0.0000000000000000e+00 1.0000000000000000e+01
0.0000000000000000e+00 1.0000000000000000e+01
0.0000000000000000e+00 1.0000000000000000e+01
ITEM: ATOMS id type x y z vx vy vz
2 1 5.61886 4.8404 4.81071 0.813254 -3.55926 -2.25822
3 2 6.0459 3.89536 5.06866 3.00238 6.60988 -3.66299
5 2 3.82657 4.51015 5.827 0.733295 13.0961 14.7493
4 2 6.19913 5.48942 4.19293 2.65096 -21.4983 -15.9143
6 2 3.95545 6.10173 4.91518 0.619488 -4.47566 -1.23052
1 1 4.37907 5.15985 5.18912 -1.40121 4.08527 2.76665
ITEM: TIMESTEP
54000
ITEM: NUMBER OF ATOMS
6
ITEM: BOX BOUNDS pp pp pp
0.0000000000000000e+00 1.0000000000000000e+01
0.0000000000000000e+00 1.0000000000000000e+01
0.0000000000000000e+00 1.0000000000000000e+01
ITEM: ATOMS id type x y z vx vy vz
2 1 5.3482 4.5262 4.69344 -1.80745 -3.09645 -1.17578
4 2 5.18073 4.27023 3.63205 -16.2188 -19.1809 -4.95407
6 2 3.84355 6.03308 4.78352 -10.8915 15.6299 4.01141
3 2 6.16079 3.96706 5.19861 12.3028 -12.0081 0.200625
5 2 4.85365 5.74051 6.36263 9.52587 21.7119 2.54683
1 1 4.64875 5.47286 5.30865 2.25068 2.58011 1.02432
ITEM: TIMESTEP
54100
ITEM: NUMBER OF ATOMS
6
ITEM: BOX BOUNDS pp pp pp
0.0000000000000000e+00 1.0000000000000000e+01
0.0000000000000000e+00 1.0000000000000000e+01
0.0000000000000000e+00 1.0000000000000000e+01
ITEM: ATOMS id type x y z vx vy vz
2 1 5.01486 4.3591 4.80605 -2.35969 -4.08274 0.544846
4 2 4.09956 3.75145 4.77276 7.72676 -0.37084 13.0386
6 2 4.08024 6.10868 5.56524 26.0568 5.93329 4.04694
3 2 5.93518 3.90577 4.43274 -24.4942 -3.20028 -8.01118
5 2 5.87275 6.28137 5.22197 -8.85448 -0.339677 -12.745
1 1 4.98637 5.6369 5.19471 2.3232 3.91301 -0.236806
ITEM: TIMESTEP
54200
ITEM: NUMBER OF ATOMS
6
ITEM: BOX BOUNDS pp pp pp
0.0000000000000000e+00 1.0000000000000000e+01
0.0000000000000000e+00 1.0000000000000000e+01
0.0000000000000000e+00 1.0000000000000000e+01
ITEM: ATOMS id type x y z vx vy vz
2 1 4.70792 4.39709 4.99863 -1.55404 0.654541 2.74277
4 2 4.40169 3.8884 5.88958 -4.03116 -11.3108 6.51026
6 2 5.50884 6.14052 5.92048 21.3055 4.79738 6.29621
3 2 4.49822 3.85655 4.08098 -30.0119 -6.82448 0.250584
5 2 5.5947 6.10637 4.10548 2.33545 7.29366 -14.4507
1 1 5.29199 5.60356 5.00181 2.42699 -0.147307 -2.62582
ITEM: TIMESTEP
54300
ITEM: NUMBER OF ATOMS
6
ITEM: BOX BOUNDS pp pp pp
0.0000000000000000e+00 1.0000000000000000e+01
0.0000000000000000e+00 1.0000000000000000e+01
0.0000000000000000e+00 1.0000000000000000e+01
ITEM: ATOMS id type x y z vx vy vz
2 1 4.51963 4.64092 5.2913 -1.50137 1.74474 3.61342
4 2 4.72261 3.80086 6.00801 -5.45542 0.116853 -3.58805
6 2 6.56129 5.23088 4.95103 0.358561 -6.33393 -17.1611
3 2 3.43862 4.7382 5.06268 -1.64824 11.082 18.4176
5 2 5.25693 6.18364 3.9713 10.5411 -2.37922 2.56535
1 1 5.48229 5.36294 4.70943 1.18282 -1.95334 -3.63304
ITEM: TIMESTEP
54400
ITEM: NUMBER OF ATOMS
6
ITEM: BOX BOUNDS pp pp pp
0.0000000000000000e+00 1.0000000000000000e+01
0.0000000000000000e+00 1.0000000000000000e+01
0.0000000000000000e+00 1.0000000000000000e+01
ITEM: ATOMS id type x y z vx vy vz
2 1 4.60899 4.94115 5.54854 2.41057 2.71786 3.26685
4 2 4.2308 4.00364 5.88884 -13.6173 8.73766 -1.41001
6 2 5.73186 4.22799 3.86993 -12.1223 5.06813 -3.77184
3 2 4.27779 5.79474 6.11283 13.4405 -1.06188 1.90006
5 2 5.7492 5.98826 4.08363 13.1565 -12.0483 -3.02005
1 1 5.39208 5.05759 4.45537 -2.48253 -2.77624 -2.738
ITEM: TIMESTEP
54500
ITEM: NUMBER OF ATOMS
6
ITEM: BOX BOUNDS pp pp pp
0.0000000000000000e+00 1.0000000000000000e+01
0.0000000000000000e+00 1.0000000000000000e+01
0.0000000000000000e+00 1.0000000000000000e+01
ITEM: ATOMS id type x y z vx vy vz
2 1 4.84992 5.20636 5.6223 2.82058 0.671304 -1.94062
4 2 3.81708 5.20603 6.02993 -0.972504 22.3192 5.70839
6 2 4.39497 4.46315 3.6378 -20.0474 3.09085 -7.07987
3 2 5.61475 5.5246 6.35778 12.1127 0.171746 10.1839
5 2 6.1793 4.80622 3.96452 5.81818 -16.2217 -2.41509
1 1 5.14977 4.7936 4.37868 -2.56134 -1.45681 1.40376
ITEM: TIMESTEP
54600
ITEM: NUMBER OF ATOMS
6
ITEM: BOX BOUNDS pp pp pp
0.0000000000000000e+00 1.0000000000000000e+01
0.0000000000000000e+00 1.0000000000000000e+01
0.0000000000000000e+00 1.0000000000000000e+01
ITEM: ATOMS id type x y z vx vy vz
2 1 5.20626 5.37756 5.51661 4.80378 0.568242 -1.72994
4 2 4.92654 6.42729 5.66035 16.0825 -6.32051 -9.47544
6 2 4.17172 5.02096 3.67263 15.1099 -4.26826 9.55212
3 2 5.80326 5.00177 6.34996 -12.4325 1.99627 -12.0462
5 2 5.09014 3.57044 4.3663 -14.6817 7.99305 9.22442
1 1 4.79464 4.62069 4.47941 -5.14602 -0.517937 1.9603
ITEM: TIMESTEP
54700
ITEM: NUMBER OF ATOMS
6
ITEM: BOX BOUNDS pp pp pp
0.0000000000000000e+00 1.0000000000000000e+01
0.0000000000000000e+00 1.0000000000000000e+01
0.0000000000000000e+00 1.0000000000000000e+01
ITEM: ATOMS id type x y z vx vy vz
2 1 5.54105 5.30544 5.27171 1.24536 -3.77185 -3.96641
4 2 6.24607 5.8695 4.69025 6.39421 -7.08015 -17.9706
6 2 4.21169 4.76647 3.67738 -0.726554 -9.32481 -10.8429
3 2 5.75334 5.24759 6.33437 -4.70221 4.01315 11.1056
5 2 3.74618 4.13957 5.30274 -11.1895 8.93898 12.7334
1 1 4.46273 4.69259 4.72804 -0.387363 4.06161 4.38387
ITEM: TIMESTEP
54800
ITEM: NUMBER OF ATOMS
6
ITEM: BOX BOUNDS pp pp pp
0.0000000000000000e+00 1.0000000000000000e+01
0.0000000000000000e+00 1.0000000000000000e+01
0.0000000000000000e+00 1.0000000000000000e+01
ITEM: ATOMS id type x y z vx vy vz
2 1 5.66831 5.07243 5.01187 -1.56226 -2.80014 -2.81938
4 2 6.34136 4.3305 4.50391 -8.70713 -8.26336 5.15926
6 2 3.81559 4.12208 4.42372 5.75496 -1.4805 13.0938
3 2 6.17923 5.88441 5.57001 -1.36735 -1.41437 -14.8317
5 2 3.6314 5.6612 5.47993 12.6703 16.1297 -6.97219
1 1 4.33461 4.92769 4.99016 0.86146 2.38294 3.11737
ITEM: TIMESTEP
54900
ITEM: NUMBER OF ATOMS
6
ITEM: BOX BOUNDS pp pp pp
0.0000000000000000e+00 1.0000000000000000e+01