LAMMPS data file via write_data, version 2 Aug 2023, timestep = 99551, units = metal

6 atoms
2 atom types

0 10 xlo xhi
0 10 ylo yhi
0 10 zlo zhi

Masses

1 12.0107
2 1.00794

Atoms # atomic

6 2 5.875158647492042 3.8582850618383984 4.4921480473396755 0 0 0
4 2 5.749379058564586 5.2985388920268965 6.306513433811035 0 0 0
2 1 4.965258988234089 5.398903427889151 5.561460783473124 0 0 0
1 1 5.032796691860247 4.622454819133577 4.422460673963691 0 0 0
5 2 4.448483550440292 4.66753536375257 3.5660225596338497 0 0 0
3 2 3.9525287699368357 5.9207313382343045 5.8286786423669135 0 0 0

Velocities

6 11.002250733911506 -20.910625067492376 6.0157383737064976
4 -26.29142632778679 1.232625165399356 -0.6414652648130885
2 19.588597624139084 7.40926485361767 1.7665484565843592
1 -20.39259243306322 -10.23300360760142 0.383804286373187
5 -3.549835809517157 6.300551317869227 -21.202740754441237
3 28.419482911167307 47.025363194693746 -9.795321161160663
