6
Step 1
 C      6.441061      5.745166      6.024903
 H      6.585488      4.819346      6.545612
 H      6.455322      5.645454      4.972406
 C      6.190292      6.908770      6.668064
 H      5.987953      7.762975      6.003967
 H      6.115093      7.009880      7.741628
6
Step 21
 C      6.469478      5.777847      6.002272
 H      6.509005      4.803870      6.454832
 H      6.334663      5.830484      4.940125
 C      6.191464      6.870691      6.684887
 H      5.879337      7.801065      6.175914
 H      6.065760      6.854775      7.753494
6
Step 41
 C      6.498301      5.792032      5.946423
 H      6.428617      4.776353      6.345103
 H      6.317666      5.792992      4.862947
 C      6.173817      6.864969      6.733482
 H      5.813847      7.854478      6.397476
 H      6.092088      6.745253      7.802265
6
Step 61
 C      6.502691      5.860676      5.922122
 H      6.392438      4.820881      6.273530
 H      6.347766      5.901369      4.818986
 C      6.150313      6.797777      6.768174
 H      5.882943      7.786975      6.364823
 H      6.255109      6.620229      7.820297
6
Step 81
 C      6.513786      5.853384      5.880705
 H      6.512079      4.747505      6.053063
 H      6.370413      6.216518      4.821423
 C      6.106050      6.767636      6.808302
 H      5.993169      7.845634      6.565982
 H      6.397108      6.740422      7.851225
6
Step 101
 C      6.493861      5.912522      5.864242
 H      6.586459      4.802417      5.808157
 H      6.518072      6.272695      4.780641
 C      6.095513      6.710481      6.854487
 H      6.020950      7.754073      6.486652
 H      6.509337      6.672321      7.854028
6
Step 121
 C      6.484358      5.943820      5.803192
 H      6.523038      4.843410      5.941691
 H      6.633169      6.516688      4.833905
 C      6.125282      6.665577      6.877878
 H      5.783978      7.711095      6.683796
 H      6.453338      6.568721      7.911380
6
Step 141
 C      6.468411      5.977903      5.788307
 H      6.487506      4.876052      5.652219
 H      6.829814      6.421266      4.805192
 C      6.156583      6.676386      6.898958
 H      5.433844      7.504348      6.937759
 H      6.458966      6.281921      7.889822
6
Step 161
 C      6.477971      6.021562      5.746536
 H      6.452541      4.921600      5.780971
 H      6.802778      6.580740      4.834180
 C      6.159137      6.645296      6.921434
 H      5.386739      7.398833      7.090782
 H      6.423171      6.014442      7.791565
6
Step 181
 C      6.469113      6.090918      5.737502
 H      6.674780      5.018503      5.663201
 H      6.712460      6.639773      4.819569
 C      6.144473      6.558036      6.929446
 H      5.638464      7.482611      7.170235
 H      6.319138      5.971737      7.846320
6
Step 201
 C      6.448871      6.114109      5.704857
 H      6.818451      5.138899      5.433215
 H      6.737292      6.885545      4.989759
 C      6.138168      6.508603      6.978354
 H      5.741259      7.503773      7.022090
 H      6.362165      5.881401      7.855495
6
Step 221
 C      6.450206      6.173434      5.701318
 H      6.740664      5.186492      5.420237
 H      6.728924      7.002850      5.094773
 C      6.143121      6.441557      6.951447
 H      5.718510      7.383172      7.250637
 H      6.392948      5.911777      7.883421
6
Step 241
 C      6.489907      6.242038      5.679878
 H      6.514961      5.241034      5.283420
 H      6.744186      6.927048      4.913444
 C      6.119644      6.402407      7.008644
 H      5.546053      7.272753      7.297731
 H      6.577816      5.676523      7.705769
6
Step 261
 C      6.475819      6.269721      5.685690
 H      6.408437      5.303368      5.214331
 H      6.770575      7.132985      5.143897
 C      6.160435      6.381139      6.972775
 H      5.405585      6.990988      7.466329
 H      6.474799      5.599562      7.709407
6
Step 281
 C      6.455364      6.312676      5.668184
 H      6.645313      5.422894      5.058726
 H      6.665301      7.235892      5.169177
 C      6.167357      6.327203      7.010438
 H      5.517317      7.093698      7.467616
 H      6.386366      5.390144      7.568592
6
Step 301
 C      6.442716      6.392569      5.696658
 H      6.734435      5.473121      5.148318
 H      6.553711      7.295595      5.126083
 C      6.169972      6.242582      6.972780
 H      5.697398      7.089147      7.506511
 H      6.341576      5.325797      7.566522
6
Step 321
 C      6.443414      6.421291      5.673135
 H      6.761133      5.548490      5.034225
 H      6.562174      7.449634      5.334513
 C      6.151475      6.209091      6.978790
 H      5.748761      6.961997      7.682044
 H      6.461437      5.265260      7.472525
6
Step 341
 C      6.436834      6.464688      5.707396
 H      6.599744      5.760266      4.835458
 H      6.684203      7.486345      5.358934
 C      6.159837      6.151270      6.969000
 H      5.639359      6.895914      7.594290
 H      6.583789      5.242952      7.406641
6
Step 361
 C      6.454542      6.539952      5.692412
 H      6.275566      5.753069      4.903772
 H      6.690996      7.615662      5.499212
 C      6.182492      6.083476      6.952772
 H      5.501584      6.675996      7.594930
 H      6.554379      5.241428      7.524996
6
Step 381
 C      6.438721      6.538833      5.716916
 H      6.467056      6.074521      4.685520
 H      6.583959      7.648001      5.553501
 C      6.179559      6.068558      6.956818
 H      5.590338      6.634946      7.687012
 H      6.601612      5.110421      7.205701
6
Step 401
 C      6.428827      6.601305      5.737065
 H      6.516175      5.979467      4.807793
 H      6.434267      7.719816      5.735838
 C      6.197722      6.022891      6.909022
 H      5.700078      6.538576      7.732916
 H      6.491544      5.018494      7.131952
6
Step 421
 C      6.423213      6.668082      5.762874
 H      6.434003      6.109930      4.802549
 H      6.456448      7.771712      5.618535
 C      6.205700      5.953066      6.893853
 H      5.694270      6.450596      7.722467
 H      6.527172      4.948463      7.090687
6
Step 441
 C      6.401859      6.665826      5.765383
 H      6.372630      6.353867      4.739201
 H      6.627948      7.749149      5.916932
 C      6.205731      5.945868      6.879634
 H      5.634731      6.270982      7.753637
 H      6.728484      5.006729      6.912665
6
Step 461
 C      6.390899      6.735257      5.780957
 H      6.298794      6.375237      4.795519
 H      6.582452      7.792204      5.987799
 C      6.237639      5.889862      6.848899
 H      5.598082      6.160283      7.701578
 H      6.630422      4.880134      6.962767
6
Step 481
 C      6.384154      6.763635      5.839279
 H      6.371218      6.494174      4.830226
 H      6.456511      7.834385      5.888056
 C      6.238222      5.849540      6.809212
 H      5.719898      6.180258      7.720833
 H      6.630383      4.828132      6.733305
6
Step 501
 C      6.367125      6.786152      5.834192
 H      6.454136      6.507424      4.832858
 H      6.477112      7.767106      6.237580
 C      6.227898      5.846826      6.785149
 H      5.859960      5.945907      7.815872
 H      6.706563      4.872593      6.581944
6
Step 521
 C      6.341866      6.830369      5.891333
 H      6.393383      6.712266      4.832128
 H      6.539699      7.869669      6.107638
 C      6.263766      5.782301      6.742658
 H      5.748978      5.978785      7.701184
 H      6.681747      4.767056      6.605495
6
Step 541
 C      6.344790      6.859439      5.918392
 H      6.213183      6.694059      4.842953
 H      6.580849      7.861537      6.288991
 C      6.271269      5.766552      6.710181
 H      5.677764      5.812778      7.642601
 H      6.761226      4.793710      6.490238
6
Step 561
 C      6.352602      6.860780      5.929017
 H      6.216736      6.884760      4.815272
 H      6.468219      7.838907      6.436733
 C      6.263185      5.764665      6.702623
 H      5.803602      5.578441      7.672789
 H      6.743991      4.863666      6.258820
6
Step 581
 C      6.330581      6.892713      5.987661
 H      6.258019      6.960765      4.849951
 H      6.355825      7.905282      6.444890
 C      6.309344      5.720438      6.650348
 H      5.761683      5.693003      7.588270
 H      6.569286      4.754330      6.182382
6
Step 601
 C      6.309916      6.910135      6.014673
 H      6.286076      6.936521      4.870016
 H      6.412591      7.806705      6.658243
 C      6.316222      5.721586      6.609209
 H      5.815730      5.564723      7.560111
 H      6.595081      4.782984      6.105532
6
Step 621
 C      6.305275      6.920699      6.038653
 H      6.245901      7.183867      4.926225
 H      6.515079      7.866994      6.581000
 C      6.292746      5.687904      6.595808
 H      5.903486      5.378565      7.553822
 H      6.779942      4.933300      5.971012
6
Step 641
 C      6.298360      6.961140      6.097140
 H      6.071405      6.990983      4.992801
 H      6.546749      7.854578      6.683649
 C      6.317268      5.671635      6.525081
 H      5.820071      5.397685      7.448610
 H      6.794439      4.827666      6.019854
6
Step 661
 C      6.283893      6.942009      6.106941
 H      6.138289      7.322627      5.069441
 H      6.464604      7.777323      6.785915
 C      6.329630      5.666643      6.508149
 H      5.901134      5.381740      7.461535
 H      6.749965      4.875262      5.883430
6
Step 681
 C      6.294946      6.964004      6.119133
 H      6.118966      7.353242      5.110971
 H      6.323086      7.657583      6.943497
 C      6.320633      5.657164      6.484006
 H      6.051804      5.285929      7.469499
 H      6.730626      4.917877      5.794603
6
Step 701
 C      6.307354      6.966801      6.184404
 H      5.967654      7.277693      5.207635
 H      6.247003      7.724910      6.935523
 C      6.325225      5.655369      6.412794
 H      6.043316      5.339306      7.422266
 H      6.757808      4.869606      5.801376
6
Step 721
 C      6.275892      6.982138      6.177834
 H      6.018070      7.511867      5.286042
 H      6.370030      7.615322      7.047614
 C      6.333933      5.632378      6.410351
 H      6.049571      5.230024      7.395167
 H      6.842544      4.952198      5.728128
6
Step 741
 C      6.254544      6.971038      6.213878
 H      6.008813      7.486483      5.318076
 H      6.458527      7.566116      7.094504
 C      6.354256      5.654176      6.379088
 H      5.981039      5.161540      7.291270
 H      6.837921      4.967317      5.683984
6
Step 761
 C      6.260464      6.991994      6.272378
 H      5.969573      7.376013      5.319853
 H      6.371322      7.748977      7.050441
 C      6.364500      5.625670      6.339737
 H      5.954106      5.127692      7.235504
 H      6.794133      5.015639      5.540532
6
Step 781
 C      6.235686      6.971963      6.270161
 H      6.074526      7.478069      5.336003
 H      6.470283      7.623092      7.132073
 C      6.364567      5.651903      6.350430
 H      6.068175      4.921133      7.113666
 H      6.766738      5.162446      5.455549
6
Step 801
 C      6.213345      6.982269      6.307672
 H      6.099867      7.497457      5.355094
 H      6.465659      7.613659      7.193134
 C      6.398103      5.634973      6.312528
 H      5.983696      4.996140      7.110330
 H      6.693250      5.144871      5.378740
6
Step 821
 C      6.228757      6.966814      6.346442
 H      6.038128      7.510310      5.405980
 H      6.343084      7.674057      7.206779
 C      6.394200      5.646629      6.271462
 H      6.025163      4.988072      7.076767
 H      6.694716      5.108592      5.370086
6
Step 841
 C      6.231157      6.979045      6.335021
 H      5.957844      7.592858      5.453539
 H      6.419429      7.455615      7.338324
 C      6.370567      5.638020      6.272621
 H      6.131110      4.886688      7.037548
 H      6.840833      5.283448      5.351417
6
Step 861
 C      6.227541      6.967437      6.373881
 H      5.846347      7.660012      5.589296
 H      6.398627      7.511992      7.345981
 C      6.389261      5.642000      6.220113
 H      6.051033      4.982494      7.033387
 H      6.867991      5.131328      5.378733
6
Step 881
 C      6.222321      6.973371      6.399907
 H      5.844092      7.646600      5.600527
 H      6.373341      7.391568      7.426676
 C      6.391318      5.644799      6.188479
 H      6.109642      4.998871      7.031392
 H      6.868485      5.117281      5.357385
6
Step 901
 C      6.225129      6.956336      6.398932
 H      5.911216      7.724943      5.671913
 H      6.324341      7.317680      7.436876
 C      6.370689      5.649103      6.193471
 H      6.269874      4.894240      6.972442
 H      6.895485      5.340568      5.286608
6
Step 921
 C      6.221130      6.960190      6.452305
 H      5.897426      7.653641      5.659218
 H      6.241198      7.384973      7.448716
 C      6.393764      5.648907      6.150257
 H      6.231237      4.904589      6.930728
 H      6.795319      5.265369      5.208096
6
Step 941
 C      6.203359      6.945891      6.461057
 H      5.849017      7.666470      5.720333
 H      6.357997      7.269071      7.467693
 C      6.414148      5.667696      6.145469
 H      6.124508      4.874887      6.832753
 H      6.792295      5.321985      5.177614
6
Step 961
 C      6.194724      6.952642      6.468862
 H      5.802429      7.752498      5.847904
 H      6.425900      7.281910      7.450513
 C      6.413958      5.646274      6.138782
 H      6.121326      4.778263      6.724550
 H      6.867750      5.480434      5.154171
6
Step 981
 C      6.201654      6.940395      6.522883
 H      5.800052      7.604287      5.768371
 H      6.338730      7.309879      7.501108
 C      6.412645      5.673964      6.091771
 H      6.174628      4.798188      6.695906
 H      6.824973      5.389595      5.114796
6
Step 1001
 C      6.178950      6.915523      6.525974
 H      5.904591      7.731083      5.860738
 H      6.374380      7.209281      7.528082
 C      6.418962      5.680988      6.078248
 H      6.248122      4.843798      6.748902
 H      6.794553      5.529612      5.058458
6
Step 1021
 C      6.164815      6.926199      6.541301
 H      5.901953      7.794765      5.934522
 H      6.407378      7.123822      7.571192
 C      6.422962      5.682039      6.064650
 H      6.314919      4.751317      6.621274
 H      6.807729      5.506898      5.046463
6
Step 1041
 C      6.189052      6.897959      6.582319
 H      5.734729      7.643595      5.911141
 H      6.333432      7.200462      7.620812
 C      6.425763      5.706201      6.024565
 H      6.191135      4.815364      6.611154
 H      6.841580      5.571752      5.015558
6
Step 1061
 C      6.172793      6.905264      6.581771
 H      5.708823      7.763945      6.052629
 H      6.401803      7.102199      7.657638
 C      6.434176      5.695439      6.021503
 H      6.219706      4.724478      6.482359
 H      6.856531      5.676759      5.005962
6
Step 1081
 C      6.157513      6.887598      6.599507
 H      5.773213      7.794743      6.086837
 H      6.398248      6.973895      7.698160
 C      6.445083      5.721177      6.005770
 H      6.277711      4.724718      6.426749
 H      6.783875      5.661925      4.963613
6
Step 1101
 C      6.171865      6.853506      6.645035
 H      5.749613      7.699984      6.060131
 H      6.269872      7.054217      7.753887
 C      6.445767      5.738564      5.955677
 H      6.265633      4.813836      6.506180
 H      6.763883      5.765164      4.912651
6
Step 1121
 C      6.153621      6.864356      6.646948
 H      5.726832      7.776378      6.190965
 H      6.404324      6.914638      7.754019
 C      6.437500      5.739960      5.961369
 H      6.376746      4.683593      6.242294
 H      6.853139      5.799745      4.950147
6
Step 1141
 C      6.146342      6.839122      6.671146
 H      5.662798      7.741053      6.278985
 H      6.425227      6.879017      7.762323
 C      6.461282      5.756076      5.924511
 H      6.221035      4.755089      6.316396
 H      6.851836      5.903313      4.918853
6
Step 1161
 C      6.159435      6.816304      6.708249
 H      5.664428      7.677740      6.282304
 H      6.280129      6.834411      7.810487
 C      6.457711      5.793771      5.892726
 H      6.298384      4.754138      6.250535
 H      6.799448      5.835276      4.861575
6
Step 1181
 C      6.149423      6.818807      6.709207
 H      5.734977      7.757028      6.410721
 H      6.315846      6.652169      7.775489
 C      6.438650      5.784552      5.887281
 H      6.503230      4.715805      6.159189
 H      6.829718      6.049350      4.903093
6
Step 1201
 C      6.148062      6.771051      6.741463
 H      5.698042      7.694820      6.473860
 H      6.320772      6.663596      7.797398
 C      6.445203      5.830600      5.844214
 H      6.438721      4.797247      6.233827
 H      6.859427      6.024271      4.855463
6
Step 1221
 C      6.138249      6.764596      6.785188
 H      5.591000      7.636928      6.523001
 H      6.397670      6.601130      7.809267
 C      6.456853      5.855325      5.810992
 H      6.377027      4.776963      6.057574
 H      6.923840      5.936170      4.829545
6
Step 1241
 C      6.138968      6.748303      6.766190
 H      5.585198      7.660302      6.710539
 H      6.398786      6.499428      7.774523
 C      6.460062      5.849258      5.815512
 H      6.371261      4.770252      5.984316
 H      6.880159      6.280856      4.910759
6
Step 1261
 C      6.147004      6.713450      6.813158
 H      5.615104      7.635084      6.595210
 H      6.243828      6.406299      7.834989
 C      6.474070      5.895335      5.795955
 H      6.414287      4.804361      5.838899
 H      6.690640      6.225239      4.778756
6
Step 1281
 C      6.137835      6.674963      6.829342
 H      5.653791      7.656432      6.655478
 H      6.228958      6.383426      7.868358
 C      6.486405      5.917940      5.771895
 H      6.432639      4.833668      5.825372
 H      6.601160      6.378479      4.784218
6
Step 1301
 C      6.109498      6.649393      6.828259
 H      5.662841      7.674567      6.802943
 H      6.439427      6.310409      7.819828
 C      6.486168      5.935316      5.770261
 H      6.456023      4.855650      5.674007
 H      6.688739      6.507673      4.857390
6
Step 1321
 C      6.115892      6.607660      6.888129
 H      5.556085      7.583595      6.734833
 H      6.461209      6.350554      7.911058
 C      6.476160      5.980579      5.718921
 H      6.413150      4.901990      5.588886
 H      6.849348      6.466636      4.804597
6
Step 1341
 C      6.136310      6.570872      6.868629
 H      5.531343      7.536955      6.905689
 H      6.371390      6.268587      7.915501
 C      6.461643      6.010011      5.709934
 H      6.453243      4.930194      5.633572
 H      6.841881      6.651700      4.904885
6
Step 1361
 C      6.110220      6.573846      6.895775
 H      5.596647      7.577215      6.986257
 H      6.414413      5.919523      7.732813
 C      6.479102      6.030317      5.710055
 H      6.565531      4.976056      5.472951
 H      6.710256      6.639183      4.814366
6
Step 1381
 C      6.131837      6.511647      6.889388
 H      5.548513      7.444758      7.116958
 H      6.258190      5.996817      7.860567
 C      6.487434      6.084951      5.684356
 H      6.471338      5.008690      5.554552
 H      6.636684      6.752970      4.817155
6
Step 1401
 C      6.126666      6.495529      6.926693
 H      5.470945      7.381024      6.983014
 H      6.435489      5.871110      7.786448
 C      6.472930      6.101827      5.673412
 H      6.487581      5.070776      5.297655
 H      6.738619      6.876148      4.921734
6
Step 1421
 C      6.109774      6.453057      6.916048
 H      5.515184      7.316980      7.221532
 H      6.501740      5.935960      7.805117
 C      6.477045      6.131257      5.664623
 H      6.471608      5.155265      5.172128
 H      6.777109      6.953084      4.981627
6
Step 1441
 C      6.114816      6.392230      6.939955
 H      5.585920      7.308007      7.136230
 H      6.395293      5.787214      7.805039
 C      6.487094      6.198998      5.638564
 H      6.442181      5.161673      5.303805
 H      6.641361      7.026486      4.928031
6
Step 1461
 C      6.122519      6.379426      6.925184
 H      5.606888      7.253147      7.243330
 H      6.392808      5.624075      7.647506
 C      6.464893      6.215155      5.666283
 H      6.605738      5.292693      5.101892
 H      6.609645      7.074608      5.000501
6
Step 1481
 C      6.122129      6.351539      6.948064
 H      5.524390      7.085939      7.420649
 H      6.406744      5.589948      7.664862
 C      6.468807      6.250571      5.614611
 H      6.557949      5.275382      5.117265
 H      6.658878      7.196253      5.118436
6
Step 1501
 C      6.137154      6.286169      6.943581
 H      5.410663      6.981938      7.264075
 H      6.526546      5.509003      7.585549
 C      6.449853      6.330596      5.650826
 H      6.439839      5.370293      5.095327
 H      6.789193      7.104911      4.983718
6
Step 1521
 C      6.121360      6.260111      6.949446
 H      5.530045      6.923486      7.558905
 H      6.504132      5.422271      7.540260
 C      6.442472      6.350523      5.610694
 H      6.615355      5.401007      5.063544
 H      6.761581      7.286945      5.165192
6
Step 1541
 C      6.141596      6.218755      6.925229
 H      5.597335      6.961026      7.509710
 H      6.400424      5.270088      7.415747
 C      6.424201      6.383288      5.648772
 H      6.726337      5.545847      4.988952
 H      6.629984      7.361270      5.237842
6
Step 1561
 C      6.165521      6.157342      6.940660
 H      5.516514      6.899111      7.449949
 H      6.286933      5.159532      7.411457
 C      6.425130      6.447147      5.642020
 H      6.671413      5.611685      4.952319
 H      6.549645      7.440687      5.230608
6
Step 1581
 C      6.156697      6.161647      6.923107
 H      5.454860      6.595935      7.679808
 H      6.390287      5.109245      7.254281
 C      6.434010      6.460321      5.648560
 H      6.567023      5.702299      4.851424
 H      6.579785      7.499619      5.391708
6
Step 1601
 C      6.150321      6.100517      6.922776
 H      5.380350      6.532261      7.622457
 H      6.602456      5.097016      7.102234
 C      6.430042      6.519098      5.671397
 H      6.406905      5.788619      4.839476
 H      6.694434      7.519291      5.352103
6
Step 1621
 C      6.161636      6.015744      6.892811
 H      5.506834      6.533702      7.670403
 H      6.534657      5.073577      7.342504
 C      6.402627      6.592451      5.669485
 H      6.485085      5.860163      4.849395
 H      6.719529      7.606973      5.448816
6
Step 1641
 C      6.149647      5.988719      6.859377
 H      5.713813      6.659760      7.652370
 H      6.620596      5.034885      7.125588
 C      6.387728      6.585962      5.709133
 H      6.615960      6.122263      4.758761
 H      6.587001      7.662712      5.715473
6
Step 1661
 C      6.138566      5.942695      6.845269
 H      5.824684      6.480133      7.776631
 H      6.569739      4.972151      7.086266
 C      6.424977      6.642115      5.714323
 H      6.482701      6.181442      4.736641
 H      6.318874      7.736908      5.770429
6
Step 1681
 C      6.149160      5.901623      6.810331
 H      5.834667      6.374573      7.750726
 H      6.515408      4.901357      6.970046
 C      6.447485      6.688478      5.766372
 H      6.301551      6.297181      4.767886
 H      6.119336      7.745604      5.689564
6
Step 1701
 C      6.168243      5.885095      6.802444
 H      5.840745      6.287388      7.748888
 H      6.446199      4.869452      6.696731
 C      6.429565      6.709487      5.776448
 H      6.433222      6.405566      4.740510
 H      6.005332      7.719459      5.974161
6
Step 1721
 C      6.195626      5.837675      6.769146
 H      5.884538      6.069208      7.761374
 H      6.385766      4.802887      6.697807
 C      6.383578      6.761389      5.810961
 H      6.548765      6.530543      4.768124
 H      6.097196      7.835794      5.918741
6
Step 1741
 C      6.200326      5.800117      6.734930
 H      5.940402      6.053644      7.728271
 H      6.495550      4.826389      6.442725
 C      6.352890      6.799124      5.851336
 H      6.599061      6.487000      4.846912
 H      6.158725      7.878664      6.060763
6
Step 1761
 C      6.193958      5.788241      6.702708
 H      6.025211      5.806213      7.747869
 H      6.590866      4.830881      6.415815
 C      6.338496      6.812961      5.869422
 H      6.603098      6.741246      4.823482
 H      6.189759      7.845966      6.264987
6
Step 1781
 C      6.192467      5.716384      6.648869
 H      6.073737      5.891306      7.706038
 H      6.693471      4.768057      6.419089
 C      6.333383      6.869148      5.917078
 H      6.497927      6.870340      4.841291
 H      6.190013      7.879995      6.359299
6
Step 1801
 C      6.198729      5.718013      6.573393
 H      6.020010      5.795750      7.660119
 H      6.815892      4.813919      6.394115
 C      6.339925      6.872757      5.978091
 H      6.263355      6.938069      4.892613
 H      6.171188      7.798234      6.551951
6
Step 1821
 C      6.243795      5.671231      6.585430
 H      5.778344      5.536421      7.600214
 H      6.777531      4.751565      6.180965
 C      6.322673      6.923211      5.975786
 H      6.154429      7.242190      4.938697
 H      6.196144      7.766603      6.664337
6
Step 1841
 C      6.300293      5.695060      6.537033
 H      5.569567      5.439575      7.353813
 H      6.698648      4.794026      5.952196
 C      6.282122      6.909273      6.050431
 H      6.091899      7.217406      5.013982
 H      6.323044      7.724618      6.755216
6
Step 1861
 C      6.278567      5.642747      6.482012
 H      5.813586      5.171810      7.409310
 H      6.783530      4.930860      5.735804
 C      6.254864      6.973307      6.117039
 H      6.260150      7.119488      5.020355
 H      6.374053      7.810585      6.775676
6
Step 1881
 C      6.281950      5.650064      6.409869
 H      5.995712      5.100979      7.347107
 H      6.808171      4.983211      5.660506
 C      6.210938      6.952583      6.192821
 H      6.398171      7.284527      5.139302
 H      6.476897      7.818527      6.755248
6
Step 1901
 C      6.336043      5.631355      6.352299
 H      5.907473      5.192185      7.272718
 H      6.685214      4.972193      5.520465
 C      6.182174      6.978216      6.238773
 H      6.302788      7.329156      5.181066
 H      6.444459      7.606288      7.068648
6
Step 1921
 C      6.343683      5.637622      6.330371
 H      5.951845      4.957311      7.079501
 H      6.580443      5.062204      5.428867
 C      6.219493      6.959468      6.258447
 H      6.026247      7.658834      5.403999
 H      6.208301      7.558294      7.161373
6
Step 1941
 C      6.334971      5.620931      6.263938
 H      5.954422      4.953672      7.011896
 H      6.664817      5.252303      5.321033
 C      6.250512      6.983526      6.322298
 H      5.738084      7.497876      5.467995
 H      6.105964      7.426671      7.312627
6
Step 1961
 C      6.338029      5.647915      6.172895
 H      6.124343      4.962456      6.958784
 H      6.770342      5.160128      5.351044
 C      6.200754      6.952595      6.397492
 H      5.844456      7.652814      5.588309
 H      6.243447      7.374959      7.412998
6
Step 1981
 C      6.343451      5.634285      6.101962
 H      6.270458      4.971358      6.932230
 H      6.919270      5.267243      5.300279
 C      6.134150      6.948865      6.454244
 H      6.033957      7.825475      5.788162
 H      6.451062      7.268575      7.469405
6
Step 2001
 C      6.347771      5.685811      6.061512
 H      6.290303      4.859903      6.754704
 H      6.864225      5.459809      5.164235
 C      6.151926      6.911788      6.515265
 H      5.923584      7.651799      5.754368
 H      6.296447      7.169436      7.582913
6
Step 2021
 C      6.393826      5.672757      6.029607
 H      6.158910      4.708950      6.483246
 H      6.690779      5.632805      4.985106
 C      6.162887      6.914238      6.561494
 H      5.732281      7.716652      5.992994
 H      6.077049      7.187795      7.635719
6
Step 2041
 C      6.433651      5.712340      6.010144
 H      6.015773      4.737267      6.314178
 H      6.618693      5.748458      4.918315
 C      6.127600      6.888643      6.587585
 H      5.707638      7.734321      6.107299
 H      6.227432      6.838273      7.685770
6
Step 2061
 C      6.409495      5.755991      5.917819
 H      6.224209      4.724874      6.324960
 H      6.790839      5.819039      4.868556
 C      6.103210      6.830190      6.669782
 H      5.838090      7.748665      6.211085
 H      6.260736      6.922552      7.753606
6
Step 2081
 C      6.370448      5.781290      5.851037
 H      6.487103      4.713863      6.219230
 H      6.995497      5.980548      4.940190
 C      6.091498      6.794500      6.731305
 H      5.877211      7.731749      6.270257
 H      6.325741      6.899232      7.801857
6
Step 2101
 C      6.400479      5.839966      5.846326
 H      6.403708      4.750290      6.134322
 H      6.851231      6.087727      4.848465
 C      6.088145      6.751394      6.738118
 H      5.774018      7.726885      6.426746
 H      6.305222      6.561742      7.801466
6
Step 2121
 C      6.459292      5.849789      5.800283
 H      6.207390      4.771074      5.955688
 H      6.626376      6.135468      4.733940