LAMMPS data file via write_data, version 2 Aug 2023, timestep = 99551, units = metal

6 atoms
2 atom types

0 10 xlo xhi
0 10 ylo yhi
0 10 zlo zhi

Masses

1 12.0107
2 1.00794

Atoms # atomic

6 2 6.496554772451971 5.153147637172476 5.1300440114575085 0 0 0
1 1 5.513948021170287 5.294550671108547 4.662271024673253 0 0 0
5 2 5.3801959187509505 5.937833587886766 3.667450597673108 0 0 0
4 2 4.883116484815135 4.184050304727595 6.16007250253094 0 0 0
2 1 4.4764600945963275 4.6897217932779185 5.32751171890436 0 0 0
3 2 3.356883960042382 4.911961525794993 5.16602355066324 0 0 0

Velocities

6 -20.808093120810863 -31.098585016765504 -61.83972953602183
1 8.531088053301712 -13.748651599903452 -8.887727926498927
5 -23.232876116360362 10.12272865385909 6.972366230615871
4 -6.495490911388955 4.936292109946565 -19.61680724002257
2 -2.9877271471123583 12.971351705669509 13.001910678340868
3 -15.518706662923343 25.30193685418044 25.459213923451067
