ITEM: TIMESTEP
94000
ITEM: NUMBER OF ATOMS
6
ITEM: BOX BOUNDS pp pp pp
0.0000000000000000e+00 1.0000000000000000e+01
0.0000000000000000e+00 1.0000000000000000e+01
0.0000000000000000e+00 1.0000000000000000e+01
ITEM: ATOMS id type x y z vx vy vz
3 2 3.87749 4.08885 4.57952 -48.9014 34.5209 32.6975
1 1 5.49053 5.39785 4.78549 0.615384 -7.98541 -7.23237
5 2 5.48748 5.83419 3.8106 11.9395 -14.2748 -7.29871
4 2 4.34027 4.44836 6.31211 30.1114 -19.1587 -16.4919
2 1 4.51979 4.58126 5.20287 -2.70643 7.18061 6.86271
6 2 6.17429 5.8771 5.43834 31.7675 8.50273 -4.50192
ITEM: TIMESTEP
94100
ITEM: NUMBER OF ATOMS
6
ITEM: BOX BOUNDS pp pp pp
0.0000000000000000e+00 1.0000000000000000e+01
0.0000000000000000e+00 1.0000000000000000e+01
0.0000000000000000e+00 1.0000000000000000e+01
ITEM: ATOMS id type x y z vx vy vz
3 2 5.37384 6.35218 5.75526 55.5997 -27.3649 -8.46428
1 1 5.04751 4.69161 4.40557 -11.7651 -2.50255 3.51207
5 2 5.44259 5.20886 3.48897 -4.87555 1.49693 -19.0546
4 2 4.49391 4.8717 6.4248 -45.5198 44.2575 25.3189
2 1 4.95722 5.30164 5.60295 11.3346 2.24122 -2.76158
6 2 4.63575 3.64737 4.23132 -0.0748638 -15.2755 -6.74293
ITEM: TIMESTEP
94200
ITEM: NUMBER OF ATOMS
6
ITEM: BOX BOUNDS pp pp pp
0.0000000000000000e+00 1.0000000000000000e+01
0.0000000000000000e+00 1.0000000000000000e+01
0.0000000000000000e+00 1.0000000000000000e+01
ITEM: ATOMS id type x y z vx vy vz
3 2 6.34636 4.66173 5.60701 5.76507 -2.1766 51.8916
1 1 4.36613 4.78405 4.95315 -3.76587 5.33102 8.78237
5 2 4.08748 3.71691 5.23356 -6.63259 28.9441 -3.74266
4 2 5.91227 6.2653 4.6434 21.2303 -34.3447 -42.0232
2 1 5.64608 5.21474 5.04228 1.42337 -4.94681 -12.0852
6 2 3.51076 5.37003 4.57229 7.55067 2.99899 33.2315
ITEM: TIMESTEP
94300
ITEM: NUMBER OF ATOMS
6
ITEM: BOX BOUNDS pp pp pp
0.0000000000000000e+00 1.0000000000000000e+01
0.0000000000000000e+00 1.0000000000000000e+01
0.0000000000000000e+00 1.0000000000000000e+01
ITEM: ATOMS id type x y z vx vy vz
3 2 6.36381 4.36623 4.34465 -34.068 -16.0314 -32.467
1 1 4.75113 5.54599 5.33212 5.5515 6.555 -1.57962
5 2 5.28738 6.34219 5.72881 29.1695 -13.7669 -24.5401
4 2 4.56709 3.64998 4.51832 -25.9313 -35.8979 31.7233
2 1 5.25799 4.45243 4.67968 -3.74166 -0.920956 2.42513
6 2 3.67558 5.66001 5.26946 9.26356 -1.4395 15.2087
ITEM: TIMESTEP
94400
ITEM: NUMBER OF ATOMS
6
ITEM: BOX BOUNDS pp pp pp
0.0000000000000000e+00 1.0000000000000000e+01
0.0000000000000000e+00 1.0000000000000000e+01
0.0000000000000000e+00 1.0000000000000000e+01
ITEM: ATOMS id type x y z vx vy vz
3 2 3.47433 4.67539 4.80104 -35.6479 26.6053 19.5111
1 1 5.5126 5.43475 4.83011 4.19761 -8.26719 -10.6206
5 2 5.36259 6.09062 3.91619 -12.6465 22.9702 -9.60341
4 2 4.65669 3.64854 5.82381 -4.24746 23.4616 -4.38003
2 1 4.49933 4.5782 5.17079 -1.26511 4.39696 10.0009
6 2 6.36665 5.43079 5.45002 17.5979 -26.919 1.85682
ITEM: TIMESTEP
94500
ITEM: NUMBER OF ATOMS
6
ITEM: BOX BOUNDS pp pp pp
0.0000000000000000e+00 1.0000000000000000e+01
0.0000000000000000e+00 1.0000000000000000e+01
0.0000000000000000e+00 1.0000000000000000e+01
ITEM: ATOMS id type x y z vx vy vz
3 2 5.71565 5.72045 6.21983 3.14627 -24.9951 -22.6672
1 1 5.123 4.72689 4.39533 -7.72604 -4.59066 -3.03198
5 2 5.99201 5.01502 3.83626 19.2178 -60.5911 -2.52427
4 2 3.88333 5.24783 6.05735 -13.195 -4.40526 -1.25438
2 1 4.8843 5.26496 5.61257 9.63738 10.146 4.22792
6 2 4.32455 4.11349 3.79418 -31.9447 23.7936 12.1949
ITEM: TIMESTEP
94600
ITEM: NUMBER OF ATOMS
6
ITEM: BOX BOUNDS pp pp pp
0.0000000000000000e+00 1.0000000000000000e+01
0.0000000000000000e+00 1.0000000000000000e+01
0.0000000000000000e+00 1.0000000000000000e+01
ITEM: ATOMS id type x y z vx vy vz
3 2 6.2236 4.97593 5.93821 20.6818 -18.1971 -7.11262
1 1 4.37341 4.78653 4.92912 -9.50872 8.70937 9.16373
5 2 3.88916 4.02573 5.62533 6.52216 43.0253 25.3067
4 2 6.1979 5.66513 4.26953 -15.4063 -24.4068 -0.871574
2 1 5.61441 5.24873 5.08035 6.32323 -5.96608 -8.71728
6 2 3.83694 4.91268 4.05596 26.1608 -33.1108 -22.6425
ITEM: TIMESTEP
94700
ITEM: NUMBER OF ATOMS
6
ITEM: BOX BOUNDS pp pp pp
0.0000000000000000e+00 1.0000000000000000e+01
0.0000000000000000e+00 1.0000000000000000e+01
0.0000000000000000e+00 1.0000000000000000e+01
ITEM: ATOMS id type x y z vx vy vz
3 2 5.97357 4.74446 3.83826 0.888527 -6.66834 13.9633
1 1 4.66031 5.46817 5.32534 7.13965 3.79039 1.56648
5 2 4.76294 6.44266 5.00625 4.29737 27.501 -43.7344
4 2 5.50181 3.50081 4.97063 5.39342 -5.72819 16.1927
2 1 5.31858 4.53345 4.66878 -12.9121 -6.09487 -3.09296
6 2 4.01572 5.29227 6.25677 58.2061 12.3559 31.768
ITEM: TIMESTEP
94800
ITEM: NUMBER OF ATOMS
6
ITEM: BOX BOUNDS pp pp pp
0.0000000000000000e+00 1.0000000000000000e+01
0.0000000000000000e+00 1.0000000000000000e+01
0.0000000000000000e+00 1.0000000000000000e+01
ITEM: ATOMS id type x y z vx vy vz
3 2 3.63138 4.72456 5.65748 -7.72475 25.6191 -5.2375
1 1 5.42973 5.469 4.839 -1.02804 -6.43279 -4.19129
5 2 5.1995 6.61592 5.04684 30.2305 -8.48511 12.5945
4 2 4.83131 3.45465 5.1366 6.1689 1.78481 -15.8313
2 1 4.56112 4.52167 5.1346 -2.60934 6.73418 11.3857
6 2 6.44927 5.31566 4.47556 14.6687 -22.5102 -77.2547
ITEM: TIMESTEP
94900
ITEM: NUMBER OF ATOMS
6
ITEM: BOX BOUNDS pp pp pp
0.0000000000000000e+00 1.0000000000000000e+01
0.0000000000000000e+00 1.0000000000000000e+01
0.0000000000000000e+00 1.0000000000000000e+01
ITEM: ATOMS id type x y z vx vy vz
3 2 5.16959 4.84263 6.55402 23.854 7.54721 1.71178
1 1 5.22427 4.75883 4.42815 -12.3608 -5.71117 -0.440915
5 2 5.85758 3.89703 4.31395 -37.9367 -40.7392 17.9729
4 2 3.94839 5.91046 5.69326 15.1359 1.03275 15.216
2 1 4.79396 5.25438 5.57667 9.62116 7.15381 -4.24004
6 2 4.80971 5.19201 3.38323 31.593 14.9686 20.8781
ITEM: TIMESTEP
95000
ITEM: NUMBER OF ATOMS
6
ITEM: BOX BOUNDS pp pp pp
0.0000000000000000e+00 1.0000000000000000e+01
0.0000000000000000e+00 1.0000000000000000e+01
0.0000000000000000e+00 1.0000000000000000e+01
ITEM: ATOMS id type x y z vx vy vz
1 1 4.4227 4.72024 4.80128 -2.21529 6.6063 10.6234
6 2 4.34637 3.96704 4.09952 -24.1947 -8.45019 38.1487
4 2 6.59668 5.04005 4.76772 0.51593 -0.703131 -18.9561
5 2 3.47964 5.23153 5.20574 33.1371 31.9012 -40.5813
3 2 5.64994 5.93603 6.00128 2.35423 7.9803 -29.2498
2 1 5.57141 5.26507 5.19264 1.22399 -9.18501 -6.37383
ITEM: TIMESTEP
95100
ITEM: NUMBER OF ATOMS
6
ITEM: BOX BOUNDS pp pp pp
0.0000000000000000e+00 1.0000000000000000e+01
0.0000000000000000e+00 1.0000000000000000e+01
0.0000000000000000e+00 1.0000000000000000e+01
ITEM: ATOMS id type x y z vx vy vz
1 1 4.61754 5.43857 5.34957 14.8514 4.31528 -1.38574
6 2 4.9381 5.74128 6.36309 12.1426 21.4147 -19.2455
4 2 6.02391 3.95757 5.1943 -9.89209 8.48599 9.50414
5 2 3.77613 5.86208 4.96206 -22.0308 0.981094 20.3304
3 2 5.30937 4.45672 3.51801 -26.01 -20.5837 5.30015
2 1 5.37868 4.55991 4.64744 -11.0087 -5.17949 0.0523215
ITEM: TIMESTEP
95200
ITEM: NUMBER OF ATOMS
6
ITEM: BOX BOUNDS pp pp pp
0.0000000000000000e+00 1.0000000000000000e+01
0.0000000000000000e+00 1.0000000000000000e+01
0.0000000000000000e+00 1.0000000000000000e+01
ITEM: ATOMS id type x y z vx vy vz
1 1 5.39167 5.54993 4.95518 5.58587 -8.894 -5.08119
6 2 5.41899 5.94296 3.96685 -17.8471 15.2967 -28.3076
4 2 4.44039 3.86119 4.09084 -38.938 11.0383 16.5512
5 2 5.84941 6.1601 5.81823 24.2771 -9.6654 -9.44784
3 2 4.18621 4.14424 5.95652 6.12931 -0.288243 22.12
2 1 4.61735 4.44093 5.05904 -3.37216 7.51927 5.00434
ITEM: TIMESTEP
95300
ITEM: NUMBER OF ATOMS
6
ITEM: BOX BOUNDS pp pp pp
0.0000000000000000e+00 1.0000000000000000e+01
0.0000000000000000e+00 1.0000000000000000e+01
0.0000000000000000e+00 1.0000000000000000e+01
ITEM: ATOMS id type x y z vx vy vz
1 1 5.24068 4.82176 4.3956 -8.2195 -5.24218 1.48528
6 2 5.79457 5.56823 3.68591 -26.784 -26.2138 -1.47425
4 2 4.77714 6.18129 5.9837 54.3189 20.3269 14.8266
5 2 5.03271 3.81347 4.10113 -9.59588 -8.56437 -13.0427
3 2 4.41305 4.31446 6.28248 -38.6912 20.4963 -18.7086
2 1 4.75806 5.18849 5.60009 9.96103 4.73488 0.0587691
ITEM: TIMESTEP
95400
ITEM: NUMBER OF ATOMS
6
ITEM: BOX BOUNDS pp pp pp
0.0000000000000000e+00 1.0000000000000000e+01
0.0000000000000000e+00 1.0000000000000000e+01
0.0000000000000000e+00 1.0000000000000000e+01
ITEM: ATOMS id type x y z vx vy vz
1 1 4.4756 4.64037 4.76849 -7.45061 5.43247 7.74569
6 2 4.30611 3.6299 4.95011 -7.34079 2.0735 3.65246
4 2 6.35782 4.74158 5.7729 -39.0506 -3.17796 13.7807
5 2 3.71772 5.18055 4.12424 -3.30077 -16.4311 31.959
3 2 5.51855 6.42219 5.08876 44.9283 2.45075 -42.951
2 1 5.53298 5.36176 5.23704 7.85039 -4.16655 -8.28623
ITEM: TIMESTEP
95500
ITEM: NUMBER OF ATOMS
6
ITEM: BOX BOUNDS pp pp pp
0.0000000000000000e+00 1.0000000000000000e+01
0.0000000000000000e+00 1.0000000000000000e+01
0.0000000000000000e+00 1.0000000000000000e+01
ITEM: ATOMS id type x y z vx vy vz
1 1 4.53283 5.37766 5.31358 6.70149 9.65373 6.41715
6 2 4.86748 6.3689 5.71309 14.1214 3.54905 -11.7975
4 2 6.45584 4.9728 4.62778 -1.06087 -3.22074 -73.2293
5 2 3.51253 5.17439 5.23621 -20.2754 1.46463 -18.7536
3 2 5.15185 3.6217 4.27437 -2.74723 0.83644 44.4368
2 1 5.46841 4.61074 4.69904 -5.86547 -9.87439 -1.43703
ITEM: TIMESTEP
95600
ITEM: NUMBER OF ATOMS
6
ITEM: BOX BOUNDS pp pp pp
0.0000000000000000e+00 1.0000000000000000e+01
0.0000000000000000e+00 1.0000000000000000e+01
0.0000000000000000e+00 1.0000000000000000e+01
ITEM: ATOMS id type x y z vx vy vz
1 1 5.35602 5.56361 5.02109 9.77742 -3.64653 -8.15558
6 2 5.16544 6.38991 4.36821 9.67909 26.0246 -27.9468
4 2 3.65027 4.34865 4.47032 -27.6832 12.8819 55.0741
5 2 6.33963 5.54303 5.62558 2.2432 -17.3144 1.25224
3 2 5.03719 3.58322 5.42325 34.0918 -21.0775 -4.9701
2 1 4.62803 4.4477 4.98852 -11.3158 3.60335 6.19105
ITEM: TIMESTEP
95700
ITEM: NUMBER OF ATOMS
6
ITEM: BOX BOUNDS pp pp pp
0.0000000000000000e+00 1.0000000000000000e+01
0.0000000000000000e+00 1.0000000000000000e+01
0.0000000000000000e+00 1.0000000000000000e+01
ITEM: ATOMS id type x y z vx vy vz
1 1 5.31654 4.8871 4.42928 -2.14396 -9.05528 -4.05686
6 2 6.38753 5.34922 4.31131 -16.4715 -29.2473 -5.91625
4 2 5.28099 5.38348 6.43851 41.4249 -15.4045 21.3701
5 2 4.84686 4.66559 3.49854 -19.3114 5.7013 -13.2916
3 2 3.53478 5.14399 5.62108 7.9154 38.9678 9.79928
2 1 4.67946 5.06736 5.58183 1.00622 9.05383 3.05305
ITEM: TIMESTEP
95800
ITEM: NUMBER OF ATOMS
6
ITEM: BOX BOUNDS pp pp pp
0.0000000000000000e+00 1.0000000000000000e+01
0.0000000000000000e+00 1.0000000000000000e+01
0.0000000000000000e+00 1.0000000000000000e+01
ITEM: ATOMS id type x y z vx vy vz
1 1 4.50433 4.64745 4.72304 -13.4988 4.14794 2.87734
6 2 3.93635 4.029 5.33041 3.83373 15.4216 14.8291
4 2 5.59857 5.33122 6.40628 25.3676 13.1555 -33.037
5 2 4.2194 4.77141 3.62392 22.3104 -22.3539 21.9196
3 2 6.30251 5.82556 4.72478 21.4012 -55.2842 -13.4821
2 1 5.49111 5.35611 5.26995 7.37993 -0.0307336 -2.05741
ITEM: TIMESTEP
95900
ITEM: NUMBER OF ATOMS
6
ITEM: BOX BOUNDS pp pp pp
0.0000000000000000e+00 1.0000000000000000e+01
0.0000000000000000e+00 1.0000000000000000e+01
0.0000000000000000e+00 1.0000000000000000e+01
ITEM: ATOMS id type x y z vx vy vz
1 1 4.48441 5.28251 5.30512 4.68175 10.2255 1.2887
6 2 4.05138 6.26712 4.9884 13.4088 -1.82607 7.18072
4 2 5.83512 5.02802 3.76945 -7.4505 -5.3658 -4.18106
5 2 3.98762 4.80472 6.06165 18.6405 25.969 48.1162
3 2 6.02048 3.83907 5.11861 12.4126 25.8884 18.2121
2 1 5.52464 4.72258 4.70023 -7.78775 -13.9738 -7.10672
ITEM: TIMESTEP
96000
ITEM: NUMBER OF ATOMS
6
ITEM: BOX BOUNDS pp pp pp
0.0000000000000000e+00 1.0000000000000000e+01
0.0000000000000000e+00 1.0000000000000000e+01
0.0000000000000000e+00 1.0000000000000000e+01
ITEM: ATOMS id type x y z vx vy vz
2 1 4.71022 4.40325 4.93586 -5.55739 5.92402 3.54159
3 2 5.15503 3.57907 4.43122 -21.5578 -33.1233 -3.64024
5 2 6.32417 5.91098 4.71216 -0.335239 1.36948 -38.9359
4 2 3.92441 4.14043 5.6857 -3.92401 9.77766 45.1043
6 2 4.75567 6.3828 5.54684 8.77966 19.8679 40.7174
1 1 5.27662 5.5956 5.03275 6.98717 -5.7471 -7.17076
ITEM: TIMESTEP
96100
ITEM: NUMBER OF ATOMS
6
ITEM: BOX BOUNDS pp pp pp
0.0000000000000000e+00 1.0000000000000000e+01
0.0000000000000000e+00 1.0000000000000000e+01
0.0000000000000000e+00 1.0000000000000000e+01
ITEM: ATOMS id type x y z vx vy vz
2 1 4.60897 5.06064 5.53635 11.7794 8.12548 2.00793
3 2 3.80161 5.92143 5.64832 -0.851321 0.987978 6.31506
5 2 5.15033 5.42072 3.51459 8.86766 19.7402 -8.46342
4 2 4.6432 4.36204 6.37796 -9.92879 19.761 9.7436
6 2 6.25949 4.15395 4.41038 -56.0173 -29.5641 -10.1978
1 1 5.40344 4.95123 4.46789 -6.91794 -9.04232 -1.78952
ITEM: TIMESTEP
96200
ITEM: NUMBER OF ATOMS
6
ITEM: BOX BOUNDS pp pp pp
0.0000000000000000e+00 1.0000000000000000e+01
0.0000000000000000e+00 1.0000000000000000e+01
0.0000000000000000e+00 1.0000000000000000e+01
ITEM: ATOMS id type x y z vx vy vz
2 1 5.41955 5.37212 5.36749 9.44559 -0.998144 -7.8749
3 2 6.46314 5.11861 5.41107 -26.5369 10.5405 -5.07994
5 2 5.04284 3.89641 3.96705 -44.4254 -13.281 48.1476
4 2 5.16267 6.20113 6.11742 15.6658 -18.8071 -17.2157
6 2 3.50519 4.69565 4.66694 0.154543 54.5375 -23.3935
1 1 4.56607 4.63525 4.61903 -4.81807 -1.77038 7.66859
ITEM: TIMESTEP
96300
ITEM: NUMBER OF ATOMS
6
ITEM: BOX BOUNDS pp pp pp
0.0000000000000000e+00 1.0000000000000000e+01
0.0000000000000000e+00 1.0000000000000000e+01
0.0000000000000000e+00 1.0000000000000000e+01
ITEM: ATOMS id type x y z vx vy vz
2 1 5.55129 4.75145 4.68946 -5.43881 -7.31732 -3.8952
3 2 6.40774 4.30944 5.24685 -17.3552 -29.7605 -3.57484
5 2 4.4114 5.53365 6.34063 29.9604 60.3885 19.9764
4 2 5.60615 4.61898 3.68879 -17.1378 -3.39387 12.8967
6 2 3.59199 5.5112 4.70146 -22.4652 -34.8371 11.6793
1 1 4.44747 5.25075 5.31257 7.70447 7.95536 0.456348
ITEM: TIMESTEP
96400
ITEM: NUMBER OF ATOMS
6
ITEM: BOX BOUNDS pp pp pp
0.0000000000000000e+00 1.0000000000000000e+01
0.0000000000000000e+00 1.0000000000000000e+01
0.0000000000000000e+00 1.0000000000000000e+01
ITEM: ATOMS id type x y z vx vy vz
2 1 4.78436 4.3673 4.87051 -9.29603 4.85441 7.39911
3 2 4.796 3.975 3.9149 -4.27756 4.76709 -15.2027
5 2 5.42029 6.29285 4.20631 -36.552 -1.14927 -24.9061
4 2 4.4355 3.64379 5.67633 -14.6727 -11.2601 17.0191
6 2 5.4778 6.06608 6.16051 55.3971 4.94306 -5.28415
1 1 5.20497 5.63454 5.13316 9.30484 -4.62788 -5.01797
ITEM: TIMESTEP
96500
ITEM: NUMBER OF ATOMS
6
ITEM: BOX BOUNDS pp pp pp
0.0000000000000000e+00 1.0000000000000000e+01
0.0000000000000000e+00 1.0000000000000000e+01
0.0000000000000000e+00 1.0000000000000000e+01
ITEM: ATOMS id type x y z vx vy vz
2 1 4.58234 4.9814 5.5404 3.66688 9.34737 4.98417
3 2 4.31392 5.9902 6.0841 26.0304 18.8893 14.855
5 2 5.97232 5.92468 4.1795 -4.51651 -42.9497 1.90893
4 2 4.3668 4.0936 6.08131 -9.0481 -12.1762 -3.20878
6 2 5.55278 4.10326 3.79807 -47.2804 12.4734 -0.493182
1 1 5.40059 5.00919 4.44776 -0.745233 -7.35316 -6.08032
ITEM: TIMESTEP
96600
ITEM: NUMBER OF ATOMS
6
ITEM: BOX BOUNDS pp pp pp
0.0000000000000000e+00 1.0000000000000000e+01
0.0000000000000000e+00 1.0000000000000000e+01
0.0000000000000000e+00 1.0000000000000000e+01
ITEM: ATOMS id type x y z vx vy vz
2 1 5.35658 5.39857 5.4098 9.63597 3.38863 -6.62554
3 2 6.10046 5.11997 6.1074 2.60556 -18.5043 5.89398
5 2 4.47027 3.56177 4.70757 -30.526 0.806379 19.4398
4 2 5.12938 6.53348 5.37425 24.8214 -11.0163 -25.575
6 2 4.11641 5.08513 3.86849 21.1827 5.5771 11.6877
1 1 4.65903 4.57619 4.58551 -11.1536 -1.44696 5.66494
ITEM: TIMESTEP
96700
ITEM: NUMBER OF ATOMS
6
ITEM: BOX BOUNDS pp pp pp
0.0000000000000000e+00 1.0000000000000000e+01
0.0000000000000000e+00 1.0000000000000000e+01
0.0000000000000000e+00 1.0000000000000000e+01
ITEM: ATOMS id type x y z vx vy vz
2 1 5.6054 4.81667 4.78212 -0.488022 -7.20805 -4.2609
3 2 6.50774 5.46351 5.00017 -31.8454 14.1275 -49.0112
5 2 4.28342 6.19743 5.52211 15.654 31.3472 -21.5551
4 2 5.78657 3.85719 4.35388 -13.3592 -38.2995 15.5709
6 2 3.46964 4.57585 5.28006 -50.1492 5.65967 5.40048
1 1 4.39083 5.17541 5.20492 7.17644 6.13095 8.42291
ITEM: TIMESTEP
96800
ITEM: NUMBER OF ATOMS
6
ITEM: BOX BOUNDS pp pp pp
0.0000000000000000e+00 1.0000000000000000e+01
0.0000000000000000e+00 1.0000000000000000e+01
0.0000000000000000e+00 1.0000000000000000e+01
ITEM: ATOMS id type x y z vx vy vz
2 1 4.82662 4.37691 4.83591 -9.31068 -1.20207 6.08583
3 2 3.94096 4.24671 4.19188 -54.2431 -21.9596 34.5137
5 2 4.53782 6.5375 4.87325 3.89406 15.9366 -13.1091
4 2 5.35722 3.48118 5.19687 9.54464 32.5641 -21.742
6 2 6.17746 5.95078 5.58164 14.6803 -22.4737 -8.29428
1 1 5.17245 5.60491 5.17737 11.503 0.860732 -5.36145
ITEM: TIMESTEP
96900
ITEM: NUMBER OF ATOMS
6
ITEM: BOX BOUNDS pp pp pp
0.0000000000000000e+00 1.0000000000000000e+01
0.0000000000000000e+00 1.0000000000000000e+01
0.0000000000000000e+00 1.0000000000000000e+01
ITEM: ATOMS id type x y z vx vy vz
2 1 4.56134 4.87795 5.45693 3.38404 8.84143 4.62392
3 2 4.7153 4.90303 6.51475 14.9772 -18.5128 -20.5154
5 2 6.52943 5.28022 4.70448 -41.9431 0.536718 -15.7002
4 2 3.45786 4.80937 5.24265 -14.2571 63.8972 26.469
6 2 5.02935 5.25802 3.515 -8.01704 2.69589 13.682
1 1 5.46136 5.10098 4.54516 0.748197 -12.9214 -4.95418
ITEM: TIMESTEP
97000
ITEM: NUMBER OF ATOMS
6
ITEM: BOX BOUNDS pp pp pp
0.0000000000000000e+00 1.0000000000000000e+01
0.0000000000000000e+00 1.0000000000000000e+01
0.0000000000000000e+00 1.0000000000000000e+01
ITEM: ATOMS id type x y z vx vy vz
5 2 3.81009 4.10595 4.81166 -9.00793 -5.90145 5.83351
6 2 4.9226 4.57753 3.53391 -35.5863 -26.8877 3.23356
1 1 4.72482 4.62072 4.5464 -5.47191 5.40469 8.95366
3 2 4.85794 5.43441 6.47486 -18.0171 21.2034 -9.67764
2 1 5.29593 5.37503 5.44646 7.00942 0.70422 -9.35089
4 2 6.16458 5.93237 5.26646 44.2903 -61.2085 5.34395
ITEM: TIMESTEP
97100
ITEM: NUMBER OF ATOMS
6
ITEM: BOX BOUNDS pp pp pp
0.0000000000000000e+00 1.0000000000000000e+01
0.0000000000000000e+00 1.0000000000000000e+01
0.0000000000000000e+00 1.0000000000000000e+01
ITEM: ATOMS id type x y z vx vy vz
5 2 3.6922 5.69356 4.61437 -13.8665 22.7387 5.38739
6 2 3.85562 4.55959 6.06435 5.014 13.6026 6.10594
1 1 4.37994 5.08735 5.20923 10.2944 7.9323 6.16133
3 2 5.84523 5.24215 3.8244 8.24744 -50.8278 -42.3674
2 1 5.64564 4.93846 4.80517 -11.3588 -7.23224 -5.13898
4 2 6.30458 4.19673 5.32721 13.2895 6.14463 18.6918
ITEM: TIMESTEP
97200
ITEM: NUMBER OF ATOMS
6
ITEM: BOX BOUNDS pp pp pp
0.0000000000000000e+00 1.0000000000000000e+01
0.0000000000000000e+00 1.0000000000000000e+01
0.0000000000000000e+00 1.0000000000000000e+01
ITEM: ATOMS id type x y z vx vy vz
5 2 4.40924 6.0966 6.002 38.5628 -18.905 -27.1877
6 2 5.85329 6.1933 4.71505 5.52625 1.29965 -6.70812
1 1 5.06027 5.63598 5.20938 7.54223 -0.944706 -2.07727
3 2 4.33356 3.56579 5.39083 23.5068 -2.08431 39.3954
2 1 4.93467 4.37203 4.79165 -9.6234 5.58621 3.57289
4 2 5.46665 4.04853 3.88177 -42.7964 -35.6189 -23.3215
ITEM: TIMESTEP
97300
ITEM: NUMBER OF ATOMS
6
ITEM: BOX BOUNDS pp pp pp
0.0000000000000000e+00 1.0000000000000000e+01
0.0000000000000000e+00 1.0000000000000000e+01
0.0000000000000000e+00 1.0000000000000000e+01
ITEM: ATOMS id type x y z vx vy vz
5 2 6.33953 4.50151 4.56143 -10.785 -47.0337 -22.2563
6 2 5.39926 5.87162 3.81196 16.6379 -36.6526 8.16765
1 1 5.50061 5.13787 4.5666 -4.81449 -3.57663 -6.83268
3 2 4.54775 3.90324 5.94473 -4.72489 10.3417 -14.7343
2 1 4.4975 4.86606 5.4318 2.07102 10.1821 7.743
4 2 3.73837 5.67634 5.7028 31.5633 -5.36647 17.9755
ITEM: TIMESTEP
97400
ITEM: NUMBER OF ATOMS
6
ITEM: BOX BOUNDS pp pp pp
0.0000000000000000e+00 1.0000000000000000e+01
0.0000000000000000e+00 1.0000000000000000e+01
0.0000000000000000e+00 1.0000000000000000e+01
ITEM: ATOMS id type x y z vx vy vz
5 2 3.77647 4.61277 4.11492 2.19853 25.522 -12.9214
6 2 5.56002 3.94881 4.08767 23.3111 -53.9985 13.9065
1 1 4.78537 4.60579 4.48501 -13.7579 -1.13634 6.67956
3 2 4.68127 6.27427 5.83492 43.6719 -0.924407 3.39107
2 1 5.2008 5.395 5.51969 7.53768 4.686 -6.37256
4 2 6.14952 5.15434 5.90837 4.93933 -12.8972 -8.03426
ITEM: TIMESTEP
97500
ITEM: NUMBER OF ATOMS
6
ITEM: BOX BOUNDS pp pp pp
0.0000000000000000e+00 1.0000000000000000e+01
0.0000000000000000e+00 1.0000000000000000e+01
0.0000000000000000e+00 1.0000000000000000e+01
ITEM: ATOMS id type x y z vx vy vz
5 2 3.51081 5.09659 4.37628 -35.8548 -27.3722 -14.3143
6 2 4.14773 5.29644 6.2801 14.9314 57.1115 -13.9213
1 1 4.35277 5.06102 5.18248 2.71221 7.89657 8.80457
3 2 5.99681 4.61049 3.81309 -9.36912 -29.0902 -32.0312
2 1 5.64265 4.93234 4.81417 -1.59917 -5.16631 -3.66227
4 2 6.40166 5.07525 5.57224 17.0294 -33.1831 -1.00921
ITEM: TIMESTEP
97600
ITEM: NUMBER OF ATOMS
6
ITEM: BOX BOUNDS pp pp pp
0.0000000000000000e+00 1.0000000000000000e+01
0.0000000000000000e+00 1.0000000000000000e+01
0.0000000000000000e+00 1.0000000000000000e+01
ITEM: ATOMS id type x y z vx vy vz
5 2 5.15652 5.70357 6.39245 61.4639 10.3125 -46.3057
6 2 4.95103 6.597 4.66335 -18.202 6.40584 -15.8004
1 1 5.01879 5.62136 5.24386 9.88168 4.8224 1.01622
3 2 5.01717 3.58463 5.47382 -7.23214 0.667484 -1.33941
2 1 4.99352 4.38086 4.7412 -12.5195 -6.85146 4.47594
4 2 4.73109 4.08796 3.65033 -4.5975 6.79271 -1.99951
ITEM: TIMESTEP
97700
ITEM: NUMBER OF ATOMS
6
ITEM: BOX BOUNDS pp pp pp
0.0000000000000000e+00 1.0000000000000000e+01
0.0000000000000000e+00 1.0000000000000000e+01
0.0000000000000000e+00 1.0000000000000000e+01
ITEM: ATOMS id type x y z vx vy vz
5 2 5.80495 4.679 3.70303 -35.8471 14.6129 -34.433
6 2 5.97541 6.11722 4.82922 11.7718 -68.0918 9.07773
1 1 5.47152 5.21367 4.57117 2.44409 -4.71384 -5.39722
3 2 4.08128 3.75533 5.41864 5.34529 21.9573 35.3903
2 1 4.5207 4.79434 5.41322 -3.91368 6.45416 4.4424
4 2 4.2335 5.35263 6.23696 36.2418 10.7837 1.34271
ITEM: TIMESTEP
97800
ITEM: NUMBER OF ATOMS
6
ITEM: BOX BOUNDS pp pp pp
0.0000000000000000e+00 1.0000000000000000e+01
0.0000000000000000e+00 1.0000000000000000e+01
0.0000000000000000e+00 1.0000000000000000e+01
ITEM: ATOMS id type x y z vx vy vz
5 2 4.56855 4.99742 3.53553 5.14935 4.24855 -3.80808
6 2 4.66508 3.5475 4.56301 -81.4201 -19.1086 2.09904
1 1 4.86188 4.60455 4.4776 -6.94318 -1.42751 3.59919
3 2 5.15822 6.43027 5.4925 -2.11707 25.4286 -35.1201
2 1 5.14989 5.39994 5.51376 13.1402 -0.895921 -0.795427
4 2 5.47027 4.97099 6.51369 4.54318 17.1177 3.41925
ITEM: TIMESTEP
97900
ITEM: NUMBER OF ATOMS
6
ITEM: BOX BOUNDS pp pp pp
0.0000000000000000e+00 1.0000000000000000e+01
0.0000000000000000e+00 1.0000000000000000e+01
0.0000000000000000e+00 1.0000000000000000e+01
ITEM: ATOMS id type x y z vx vy vz
5 2 3.85389 4.00711 5.38473 -14.7911 9.32692 34.3457
6 2 3.59349 5.84375 5.13457 4.24303 23.0321 -30.8376
1 1 4.34444 4.98078 5.06213 0.704892 6.47973 10.3709
3 2 6.23016 4.02511 4.83717 1.0966 -4.22574 7.81268
2 1 5.65743 5.03936 4.90988 -1.85656 -10.3704 -9.35917
4 2 6.30265 5.88369 4.9789 23.1749 18.2283 -23.3764
ITEM: TIMESTEP
98000
ITEM: NUMBER OF ATOMS
6
ITEM: BOX BOUNDS pp pp pp
0.0000000000000000e+00 1.0000000000000000e+01
0.0000000000000000e+00 1.0000000000000000e+01
0.0000000000000000e+00 1.0000000000000000e+01
ITEM: ATOMS id type x y z vx vy vz
4 2 4.14684 3.89002 4.21679 -4.5815 10.7256 38.7734
3 2 5.89868 3.7232 4.69859 -1.7373 -22.508 -20.4618
2 1 5.06121 4.39561 4.75072 -10.3429 0.768188 4.32156
6 2 3.97653 6.05902 5.31879 32.63 -1.90171 11.2585
1 1 4.95465 5.60416 5.27635 9.13075 0.346436 -2.62029
5 2 5.79142 6.33004 5.44511 -11.8669 0.402225 -49.8425
ITEM: TIMESTEP
98100
ITEM: NUMBER OF ATOMS
6
ITEM: BOX BOUNDS pp pp pp
0.0000000000000000e+00 1.0000000000000000e+01
0.0000000000000000e+00 1.0000000000000000e+01
0.0000000000000000e+00 1.0000000000000000e+01
ITEM: ATOMS id type x y z vx vy vz
4 2 4.65304 4.17828 6.22746 -9.55981 -8.30651 10.0887
3 2 3.42576 4.68283 4.98064 32.5313 56.1292 26.3821
2 1 4.4913 4.70884 5.32996 -0.945011 8.721 5.2959
6 2 6.56123 5.07008 4.85114 13.3784 6.76503 -30.9439
1 1 5.50728 5.30953 4.68058 -0.50353 -14.0703 -6.55009
5 2 5.37939 5.84944 3.81701 -19.0889 9.15542 9.41807
ITEM: TIMESTEP
98200
ITEM: NUMBER OF ATOMS
6
ITEM: BOX BOUNDS pp pp pp
0.0000000000000000e+00 1.0000000000000000e+01
0.0000000000000000e+00 1.0000000000000000e+01
0.0000000000000000e+00 1.0000000000000000e+01
ITEM: ATOMS id type x y z vx vy vz
4 2 4.25796 5.46897 6.3116 17.6854 29.1223 -26.5007
3 2 5.97932 5.82701 5.77139 48.6214 -23.6929 36.2432
2 1 5.04767 5.34253 5.58526 4.65261 3.46726 -6.65237
6 2 4.02866 4.38438 3.97072 -36.2416 7.66342 14.3215
1 1 4.94288 4.65014 4.43056 -6.64064 -2.28905 6.37277
5 2 5.84908 4.40652 3.7597 -6.3757 -27.1325 -20.7323
ITEM: TIMESTEP
98300
ITEM: NUMBER OF ATOMS
6
ITEM: BOX BOUNDS pp pp pp
0.0000000000000000e+00 1.0000000000000000e+01
0.0000000000000000e+00 1.0000000000000000e+01
0.0000000000000000e+00 1.0000000000000000e+01
ITEM: ATOMS id type x y z vx vy vz
4 2 6.04054 5.45551 3.95116 -1.6387 -56.1783 -51.7323
3 2 6.48511 4.80048 5.64848 2.00596 17.907 -4.71159
2 1 5.66656 5.10575 4.95506 -3.91305 -8.14559 -4.65215
6 2 3.70453 5.16837 4.10172 7.70652 10.1087 13.7344
1 1 4.3306 4.89216 5.07384 4.40469 9.80066 8.57612
5 2 3.8061 4.60014 5.95607 -13.9323 8.44067 -4.04877
ITEM: TIMESTEP
98400
ITEM: NUMBER OF ATOMS
6
ITEM: BOX BOUNDS pp pp pp
0.0000000000000000e+00 1.0000000000000000e+01
0.0000000000000000e+00 1.0000000000000000e+01
0.0000000000000000e+00 1.0000000000000000e+01
ITEM: ATOMS id type x y z vx vy vz
4 2 4.95342 3.42421 5.16663 33.6376 27.2785 19.9961
3 2 5.66862 4.53532 3.67914 -55.1725 -10.9844 -11.6309
2 1 5.16154 4.41498 4.67098 -10.9467 -3.44539 0.750036
6 2 4.39031 5.68819 6.2722 10.2154 23.3155 -19.8053
1 1 4.82484 5.56645 5.33224 10.3997 2.45142 0.070036
5 2 5.15247 6.57305 4.84555 17.8369 -27.7653 1.66805
ITEM: TIMESTEP
98500
ITEM: NUMBER OF ATOMS
6
ITEM: BOX BOUNDS pp pp pp
0.0000000000000000e+00 1.0000000000000000e+01
0.0000000000000000e+00 1.0000000000000000e+01
0.0000000000000000e+00 1.0000000000000000e+01
ITEM: ATOMS id type x y z vx vy vz
4 2 4.45632 3.61517 5.47591 -18.0764 8.81142 -20.063
3 2 3.72926 5.30341 5.67146 23.2497 5.35042 53.5594
2 1 4.48301 4.65177 5.30371 -0.525983 7.93922 6.43093
6 2 6.51897 4.87008 4.40293 -27.2358 -33.7034 -4.13607
1 1 5.51272 5.33926 4.69679 2.74847 -6.18 -7.15796
5 2 5.34884 6.31783 4.44558 -4.42085 -1.42148 -20.6971
ITEM: TIMESTEP
98600
ITEM: NUMBER OF ATOMS
6
ITEM: BOX BOUNDS pp pp pp
0.0000000000000000e+00 1.0000000000000000e+01
0.0000000000000000e+00 1.0000000000000000e+01
0.0000000000000000e+00 1.0000000000000000e+01
ITEM: ATOMS id type x y z vx vy vz
4 2 4.33634 6.25497 5.64364 25.4119 61.0835 -4.29188
3 2 5.5756 5.12709 6.45592 25.6983 -23.7369 1.37999
2 1 4.97433 5.34223 5.57223 7.05229 4.20468 -3.33652
6 2 4.21861 4.78481 3.77267 -26.8919 21.8278 -15.9596
1 1 5.02684 4.65177 4.42191 -8.03148 -9.09183 3.54321
5 2 5.85788 3.90419 4.19943 -12.5501 -0.938653 16.4085
ITEM: TIMESTEP
98700
ITEM: NUMBER OF ATOMS
6
ITEM: BOX BOUNDS pp pp pp
0.0000000000000000e+00 1.0000000000000000e+01
0.0000000000000000e+00 1.0000000000000000e+01
0.0000000000000000e+00 1.0000000000000000e+01
ITEM: ATOMS id type x y z vx vy vz
4 2 6.34701 4.72497 4.20314 -10.7852 -30.4024 16.9776
3 2 6.10402 5.81459 5.81174 -4.13024 -0.99312 0.660248
2 1 5.65265 5.10313 4.99985 3.63562 -5.71813 -8.9073
6 2 3.73417 4.54771 4.10103 -5.8234 -11.013 36.9072
1 1 4.34936 4.87651 4.99995 -3.3315 4.10444 1.87704
5 2 3.79323 5.15495 5.88829 17.1151 61.6374 29.2281
ITEM: TIMESTEP
98800
ITEM: NUMBER OF ATOMS
6
ITEM: BOX BOUNDS pp pp pp
0.0000000000000000e+00 1.0000000000000000e+01
0.0000000000000000e+00 1.0000000000000000e+01
0.0000000000000000e+00 1.0000000000000000e+01
ITEM: ATOMS id type x y z vx vy vz
4 2 5.6318 3.59763 5.23972 -23.8414 5.82645 12.5502
3 2 4.80981 4.19073 3.67835 -8.66826 -9.72792 54.6121
2 1 5.20612 4.47222 4.66148 -10.2775 -5.14756 -2.99179
6 2 4.8953 5.5697 6.40807 54.9314 0.223123 11.8988
1 1 4.82523 5.5488 5.32167 8.49118 7.94051 -4.77539
5 2 4.29197 6.39103 4.8765 -1.13614 -29.6027 13.4934
ITEM: TIMESTEP
98900
ITEM: NUMBER OF ATOMS
6
ITEM: BOX BOUNDS pp pp pp
0.0000000000000000e+00 1.0000000000000000e+01
0.0000000000000000e+00 1.0000000000000000e+01
0.0000000000000000e+00 1.0000000000000000e+01
ITEM: ATOMS id type x y z vx vy vz
4 2 4.09415 3.92785 4.58691 5.48401 8.66862 51.5801
3 2 4.17475 4.54435 6.26365 24.2013 9.58181 23.5576
2 1 4.54548 4.59196 5.23303 -5.51614 8.12795 1.18181
6 2 5.79312 5.19933 3.78789 -29.9374 8.17116 -17.9027
1 1 5.45283 5.41694 4.76792 1.42799 -8.18907 -8.25709
5 2 5.96049 6.22191 5.35207 48.9668 -25.6932 27.0746
ITEM: TIMESTEP
99000
ITEM: NUMBER OF ATOMS
6
ITEM: BOX BOUNDS pp pp pp
0.0000000000000000e+00 1.0000000000000000e+01
0.0000000000000000e+00 1.0000000000000000e+01
0.0000000000000000e+00 1.0000000000000000e+01
ITEM: ATOMS id type x y z vx vy vz
1 1 5.04725 4.69849 4.41552 -5.07468 -1.96853 6.15541
5 2 5.01401 3.60358 4.42026 -81.3043 -6.43297 -0.323126
6 2 5.27511 5.25661 3.42007 0.786591 -12.1029 -10.4831
3 2 4.80743 4.71143 6.40568 4.54525 -0.00898433 1.35831
2 1 4.9291 5.30813 5.58043 9.76298 0.897958 -4.90143
4 2 5.1877 6.34917 5.80409 20.1064 31.3019 -5.49464
ITEM: TIMESTEP
99100
ITEM: NUMBER OF ATOMS
6
ITEM: BOX BOUNDS pp pp pp
0.0000000000000000e+00 1.0000000000000000e+01
0.0000000000000000e+00 1.0000000000000000e+01
0.0000000000000000e+00 1.0000000000000000e+01
ITEM: ATOMS id type x y z vx vy vz
1 1 4.37427 4.77336 4.90614 -1.56682 8.43775 7.66595
5 2 3.50322 5.50295 4.64011 6.94697 -26.4874 -18.8597
6 2 4.11847 3.79454 5.26574 -0.734746 40.2468 58.6741
3 2 5.97706 6.30272 4.86857 24.5084 5.75046 -6.43934
2 1 5.63036 5.21917 5.08018 -0.467517 -7.55056 -9.36033
4 2 6.34849 4.48844 5.39044 -6.47935 -30.0817 -13.1847
ITEM: TIMESTEP
99200
ITEM: NUMBER OF ATOMS
6
ITEM: BOX BOUNDS pp pp pp
0.0000000000000000e+00 1.0000000000000000e+01
0.0000000000000000e+00 1.0000000000000000e+01
0.0000000000000000e+00 1.0000000000000000e+01
ITEM: ATOMS id type x y z vx vy vz
1 1 4.70242 5.53263 5.30875 11.054 5.70023 3.84435
5 2 3.69246 5.56049 5.53017 9.21617 -6.9795 21.2009
6 2 5.4029 6.4014 5.54824 -16.7771 8.69475 -72.9112
3 2 4.73403 3.62327 4.27741 -14.8145 2.44232 3.07067
2 1 5.27659 4.45892 4.69699 -7.03633 -3.4924 1.25442
4 2 6.42317 4.51516 4.57771 -25.4995 -30.4662 -12.1178
ITEM: TIMESTEP
99300
ITEM: NUMBER OF ATOMS
6
ITEM: BOX BOUNDS pp pp pp
0.0000000000000000e+00 1.0000000000000000e+01
0.0000000000000000e+00 1.0000000000000000e+01
0.0000000000000000e+00 1.0000000000000000e+01