LAMMPS data file via write_data, version 2 Aug 2023, timestep = 134000, units = metal

6 atoms
2 atom types

0 10 xlo xhi
0 10 ylo yhi
0 10 zlo zhi

Masses

1 12.0107
2 1.00794

Atoms # atomic

3 2 3.677967484191396 4.452057018328265 4.468253298496306 0 0 0
1 1 5.396175265552913 5.558947832173891 4.963846720154152 0 0 0
5 2 5.013215486664381 6.418150293074114 4.397091270604974 0 0 0
4 2 4.920352146003153 3.4376664475722105 5.6115618564797645 0 0 0
2 1 4.602521619427845 4.4379971846957975 5.0457716325535396 0 0 0
6 2 6.4064463301650685 5.728112067958798 5.410321406725733 0 0 0

Velocities

3 -24.02204092547195 50.748342230440535 61.14091909953192
1 7.370720824853835 -3.4918123873052602 -7.425266552646693
5 -10.359108322652068 1.6299808827296125 -27.009494272742845
4 -10.580517038795595 -9.319929183137868 -10.679669282505612
2 -5.57739115864677 -0.4853806312118315 5.952350027029413
6 23.592195264923472 4.334181210856232 -5.90035514919847
