LAMMPS data file via write_data, version 2 Aug 2023, timestep = 69575, units = metal

6 atoms
2 atom types

0 10 xlo xhi
0 10 ylo yhi
0 10 zlo zhi

Masses

1 12.0107
2 1.00794

Atoms # atomic

4 2 5.493088253746563 6.498140263768146 5.25407374570965 0 0 0
2 1 5.469967145391941 5.344066548902341 5.324473625264716 0 0 0
6 2 3.821413847817114 5.162187873328 3.9861005014598323 0 0 0
3 2 6.147716599306299 4.808963746003241 6.006247530859854 0 0 0
1 1 4.535391737691468 4.6544637603836065 4.67751552461713 0 0 0
5 2 4.476305728678124 3.547818448193571 4.73164472288126 0 0 0

Velocities

4 7.555893848398858 0.3207344513317665 -17.435541955271233
2 3.199595683310052 -4.182330413977047 -3.6737475883701194
6 2.6871223466089473 5.403668044060845 -3.5072600767432065
3 1.796890931931115 2.6254172243034186 -0.278644749986094
1 -3.3342905390148534 3.9466018975081223 3.2561717716666188
5 -10.434871605565013 -5.540858379981698 26.19731624018632
