ITEM: TIMESTEP
92000
ITEM: NUMBER OF ATOMS
6
ITEM: BOX BOUNDS pp pp pp
0.0000000000000000e+00 1.0000000000000000e+01
0.0000000000000000e+00 1.0000000000000000e+01
0.0000000000000000e+00 1.0000000000000000e+01
ITEM: ATOMS id type x y z vx vy vz
4 2 4.14731 3.70427 4.70319 -43.0122 29.8896 -25.8234
1 1 5.46389 5.4462 4.75898 3.80701 -3.33133 -6.35979
6 2 5.92583 5.33158 3.633 -19.6096 -25.5999 -22.2176
3 2 4.21668 4.43797 6.26018 33.0426 4.81472 14.2761
2 1 4.5145 4.58688 5.24358 -3.94926 4.90948 11.1344
5 2 5.97019 6.13162 5.37497 31.2742 -27.9098 -23.1303
ITEM: TIMESTEP
92100
ITEM: NUMBER OF ATOMS
6
ITEM: BOX BOUNDS pp pp pp
0.0000000000000000e+00 1.0000000000000000e+01
0.0000000000000000e+00 1.0000000000000000e+01
0.0000000000000000e+00 1.0000000000000000e+01
ITEM: ATOMS id type x y z vx vy vz
4 2 5.75235 6.22211 5.44903 43.7712 -3.99479 -22.1426
1 1 4.88261 4.64068 4.45442 -10.8412 1.70122 -0.929838
6 2 5.40702 4.94862 3.55337 -9.49473 -56.7613 36.9321
3 2 4.59543 5.28839 6.55775 -19.48 14.1612 -8.86816
2 1 5.12546 5.34197 5.57144 12.3061 0.801017 -1.3705
5 2 4.15151 3.74726 4.13357 -32.2525 16.778 21.4897
ITEM: TIMESTEP
92200
ITEM: NUMBER OF ATOMS
6
ITEM: BOX BOUNDS pp pp pp
0.0000000000000000e+00 1.0000000000000000e+01
0.0000000000000000e+00 1.0000000000000000e+01
0.0000000000000000e+00 1.0000000000000000e+01
ITEM: ATOMS id type x y z vx vy vz
4 2 6.48748 4.62608 5.53639 -2.75518 -9.77123 -35.1924
1 1 4.36069 5.09572 5.19864 0.51897 14.0991 5.89004
6 2 3.9049 4.79847 6.18434 5.25344 23.5495 21.3729
3 2 6.03718 5.15153 3.80508 -23.2402 -54.8782 -36.4805
2 1 5.63928 4.90589 4.8 -4.14045 -7.37168 -2.47908
5 2 3.57333 5.40423 4.49224 63.8958 -39.0643 9.65481
ITEM: TIMESTEP
92300
ITEM: NUMBER OF ATOMS
6
ITEM: BOX BOUNDS pp pp pp
0.0000000000000000e+00 1.0000000000000000e+01
0.0000000000000000e+00 1.0000000000000000e+01
0.0000000000000000e+00 1.0000000000000000e+01
ITEM: ATOMS id type x y z vx vy vz
4 2 4.45314 4.03533 3.92147 -46.5273 19.5577 1.49741
1 1 5.20543 5.62663 5.16069 4.66969 2.38879 -7.72741
6 2 5.1988 6.36223 4.41006 25.9947 -53.2609 -2.69675
3 2 4.9065 3.51684 5.5478 24.8572 20.4669 -23.7138
2 1 4.78448 4.386 4.84025 -10.8518 -1.70762 10.2376
5 2 5.56426 5.93478 6.11131 69.3418 5.11947 -4.99838
ITEM: TIMESTEP
92400
ITEM: NUMBER OF ATOMS
6
ITEM: BOX BOUNDS pp pp pp
0.0000000000000000e+00 1.0000000000000000e+01
0.0000000000000000e+00 1.0000000000000000e+01
0.0000000000000000e+00 1.0000000000000000e+01
ITEM: ATOMS id type x y z vx vy vz
4 2 5.31079 5.526 6.37194 24.432 -14.6004 -19.6741
1 1 5.30447 4.9439 4.41956 -13.2424 -8.99474 -3.30277
6 2 6.34667 5.24321 4.37546 41.8501 -31.1227 1.3802
3 2 3.68118 4.86706 5.82601 -35.9684 58.8355 0.347874
2 1 4.66259 5.04763 5.57606 11.627 6.82481 4.88758
5 2 5.05635 4.46433 3.48058 -11.0644 12.7445 -0.938597
ITEM: TIMESTEP
92500
ITEM: NUMBER OF ATOMS
6
ITEM: BOX BOUNDS pp pp pp
0.0000000000000000e+00 1.0000000000000000e+01
0.0000000000000000e+00 1.0000000000000000e+01
0.0000000000000000e+00 1.0000000000000000e+01
ITEM: ATOMS id type x y z vx vy vz
4 2 5.70784 5.79296 6.07323 46.653 34.8241 8.58613
1 1 4.40787 4.74688 4.82312 -6.46522 6.9664 12.3339
6 2 3.48707 4.71632 5.51141 -4.42127 38.7092 0.355832
3 2 6.49436 5.46987 4.46648 17.065 -42.3234 -7.05364
2 1 5.60221 5.21994 5.19199 0.113209 -7.26291 -11.7883
5 2 4.19305 4.4159 3.77074 16.3944 -27.6766 -8.38997
ITEM: TIMESTEP
92600
ITEM: NUMBER OF ATOMS
6
ITEM: BOX BOUNDS pp pp pp
0.0000000000000000e+00 1.0000000000000000e+01
0.0000000000000000e+00 1.0000000000000000e+01
0.0000000000000000e+00 1.0000000000000000e+01
ITEM: ATOMS id type x y z vx vy vz
4 2 4.91707 3.83336 3.69974 -47.6849 -27.686 22.8443
1 1 4.77338 5.54138 5.32163 8.82399 3.92255 1.12129
6 2 3.95144 6.1554 4.98417 19.7078 14.8795 3.8177
3 2 6.03037 3.98385 5.08863 18.5871 -8.10794 -26.3628
2 1 5.22178 4.48443 4.66813 -9.85876 -4.90614 2.08256
5 2 5.16127 5.71942 6.35138 21.7204 32.6351 -38.4766
ITEM: TIMESTEP
92700
ITEM: NUMBER OF ATOMS
6
ITEM: BOX BOUNDS pp pp pp
0.0000000000000000e+00 1.0000000000000000e+01
0.0000000000000000e+00 1.0000000000000000e+01
0.0000000000000000e+00 1.0000000000000000e+01
ITEM: ATOMS id type x y z vx vy vz
4 2 4.66816 4.2463 6.23315 26.8043 -0.06649 -20.0501
1 1 5.50177 5.3287 4.70079 -5.22042 -6.94125 -6.6024
6 2 6.53332 5.36744 5.03947 10.3405 -53.1733 -40.4402
3 2 3.3474 4.66465 4.93259 -7.68496 22.3894 36.4823
2 1 4.49696 4.66068 5.30168 -1.1234 10.0548 8.9481
5 2 5.46871 5.84766 3.7672 46.1337 -6.251 -3.94359
ITEM: TIMESTEP
92800
ITEM: NUMBER OF ATOMS
6
ITEM: BOX BOUNDS pp pp pp
0.0000000000000000e+00 1.0000000000000000e+01
0.0000000000000000e+00 1.0000000000000000e+01
0.0000000000000000e+00 1.0000000000000000e+01
ITEM: ATOMS id type x y z vx vy vz
4 2 4.4581 6.19762 6.03091 58.3228 40.6304 6.154
1 1 4.81824 4.60881 4.473 -13.2439 -4.87838 8.07866
6 2 3.76792 4.58928 4.13419 -0.418471 39.5478 -24.4352
3 2 6.16581 5.46898 5.85414 -16.3347 2.42731 -15.2215
2 1 5.19082 5.37105 5.53804 9.55091 -0.244449 -6.96311
5 2 5.50257 3.9837 3.85107 2.43636 -21.5614 20.2098
ITEM: TIMESTEP
92900
ITEM: NUMBER OF ATOMS
6
ITEM: BOX BOUNDS pp pp pp
0.0000000000000000e+00 1.0000000000000000e+01
0.0000000000000000e+00 1.0000000000000000e+01
0.0000000000000000e+00 1.0000000000000000e+01
ITEM: ATOMS id type x y z vx vy vz
4 2 5.95063 4.23948 3.95178 -17.7376 -27.9695 43.3822
1 1 4.36979 5.19171 5.23232 6.97442 8.50371 5.56331
6 2 3.39958 5.0046 4.76752 -16.2227 6.73027 36.1116
3 2 6.54088 5.18236 5.31655 14.0187 4.03558 -15.6562
2 1 5.59456 4.79208 4.75374 -6.91179 -8.94966 -7.29971
5 2 4.53629 5.7663 6.13208 19.1953 22.5176 -43.1464
ITEM: TIMESTEP
93000
ITEM: NUMBER OF ATOMS
6
ITEM: BOX BOUNDS pp pp pp
0.0000000000000000e+00 1.0000000000000000e+01
0.0000000000000000e+00 1.0000000000000000e+01
0.0000000000000000e+00 1.0000000000000000e+01
ITEM: ATOMS id type x y z vx vy vz
3 2 3.65711 4.33067 4.56787 12.5723 18.5651 39.2846
2 1 4.67916 4.37942 4.92069 -14.0807 3.58676 5.37978
5 2 4.88938 6.55077 4.73082 16.8444 43.3673 -4.15231
4 2 5.06775 3.47534 5.54379 26.7938 -3.69513 15.6848
1 1 5.33316 5.61407 5.04108 7.16882 -8.19873 -4.59112
6 2 6.2415 5.72037 5.61498 26.152 -3.28058 -60.2149
ITEM: TIMESTEP
93100
ITEM: NUMBER OF ATOMS
6
ITEM: BOX BOUNDS pp pp pp
0.0000000000000000e+00 1.0000000000000000e+01
0.0000000000000000e+00 1.0000000000000000e+01
0.0000000000000000e+00 1.0000000000000000e+01
ITEM: ATOMS id type x y z vx vy vz
3 2 5.21922 4.93621 6.60366 33.0831 2.03876 1.99316
2 1 4.73014 5.19393 5.59601 2.07492 11.5315 1.02047
5 2 6.18338 4.17699 4.18687 -23.3748 -41.9768 18.2877
4 2 3.76642 5.68549 5.60848 46.0758 18.2737 34.3941
1 1 5.28272 4.8192 4.41169 -4.49573 -13.7552 -1.89013
6 2 4.68021 5.04444 3.51102 -26.9376 48.1621 -44.312
ITEM: TIMESTEP
93200
ITEM: NUMBER OF ATOMS
6
ITEM: BOX BOUNDS pp pp pp
0.0000000000000000e+00 1.0000000000000000e+01
0.0000000000000000e+00 1.0000000000000000e+01
0.0000000000000000e+00 1.0000000000000000e+01
ITEM: ATOMS id type x y z vx vy vz
3 2 5.86583 6.10363 5.61747 -0.738345 -10.6117 -53.0696
2 1 5.62422 5.20913 5.11881 4.39512 -5.9136 -6.09938
5 2 3.62727 5.50448 5.27321 5.58935 83.6269 -6.49955
4 2 6.54975 4.67631 4.81887 9.89998 -8.07831 0.728097
1 1 4.36988 4.78346 4.88284 -3.34404 1.05761 9.02845
6 2 4.02985 3.80351 4.27272 -27.2757 -7.07245 23.9381
ITEM: TIMESTEP
93300
ITEM: NUMBER OF ATOMS
6
ITEM: BOX BOUNDS pp pp pp
0.0000000000000000e+00 1.0000000000000000e+01
0.0000000000000000e+00 1.0000000000000000e+01
0.0000000000000000e+00 1.0000000000000000e+01
ITEM: ATOMS id type x y z vx vy vz
3 2 4.31463 3.74656 4.39945 -24.369 -27.6028 41.7463
2 1 5.15171 4.40588 4.70059 -12.6095 -6.88014 -1.29244
5 2 3.69056 5.96093 5.50775 22.112 13.4609 36.7825
4 2 6.09825 3.95445 4.73679 6.76207 16.118 5.68944
1 1 4.87024 5.60146 5.27701 9.80151 5.43658 -3.71433
6 2 5.63741 6.25023 5.62473 28.9553 15.2255 -24.5571
ITEM: TIMESTEP
93400
ITEM: NUMBER OF ATOMS
6
ITEM: BOX BOUNDS pp pp pp
0.0000000000000000e+00 1.0000000000000000e+01
0.0000000000000000e+00 1.0000000000000000e+01
0.0000000000000000e+00 1.0000000000000000e+01
ITEM: ATOMS id type x y z vx vy vz
3 2 4.55302 3.95186 6.08783 -8.76103 -11.642 16.3814
2 1 4.50195 4.7814 5.39818 -1.13436 12.5111 9.43995
5 2 6.48442 4.80878 4.38524 -40.057 -25.5714 -37.4177
4 2 3.58173 5.43689 5.35896 8.31797 20.4624 18.3471
1 1 5.51077 5.18354 4.61595 4.79907 -10.7772 -11.4374
6 2 5.23165 6.21982 4.00141 -3.16902 -3.91048 26.4916
ITEM: TIMESTEP
93500
ITEM: NUMBER OF ATOMS
6
ITEM: BOX BOUNDS pp pp pp
0.0000000000000000e+00 1.0000000000000000e+01
0.0000000000000000e+00 1.0000000000000000e+01
0.0000000000000000e+00 1.0000000000000000e+01
ITEM: ATOMS id type x y z vx vy vz
3 2 4.9645 6.45134 5.70597 50.4833 -13.5444 -36.5319
2 1 5.3007 5.41213 5.42615 10.8018 4.0655 -4.89026
5 2 3.80578 5.04 3.98877 14.6849 28.0649 2.28375
4 2 5.96396 5.06331 6.19052 12.6222 10.4345 21.8233
1 1 4.72529 4.58074 4.54363 -14.217 -9.36867 5.05401
6 2 4.95856 3.5299 4.47677 -37.0955 38.238 10.4736
ITEM: TIMESTEP
93600
ITEM: NUMBER OF ATOMS
6
ITEM: BOX BOUNDS pp pp pp
0.0000000000000000e+00 1.0000000000000000e+01
0.0000000000000000e+00 1.0000000000000000e+01
0.0000000000000000e+00 1.0000000000000000e+01
ITEM: ATOMS id type x y z vx vy vz
3 2 5.61637 3.72591 4.5522 13.2993 -48.9527 24.572
2 1 5.54711 4.74937 4.73721 -1.2883 -9.65621 -8.20297
5 2 3.60452 4.653 5.42471 14.4735 68.5577 54.4791
4 2 6.47505 5.26017 4.45969 -48.8763 -4.06466 -19.0065
1 1 4.45706 5.25308 5.27919 2.84005 7.28169 3.84468
6 2 4.25683 6.3313 5.36979 2.61277 12.7546 -8.11087
ITEM: TIMESTEP
93700
ITEM: NUMBER OF ATOMS
6
ITEM: BOX BOUNDS pp pp pp
0.0000000000000000e+00 1.0000000000000000e+01
0.0000000000000000e+00 1.0000000000000000e+01
0.0000000000000000e+00 1.0000000000000000e+01
ITEM: ATOMS id type x y z vx vy vz
3 2 5.02766 3.41165 4.99665 -49.3879 7.82837 -1.44219
2 1 4.61808 4.45118 5.04361 0.287445 3.42419 7.02858
5 2 6.42994 5.64546 4.69758 24.9657 15.464 -20.3449
4 2 3.62143 4.58872 5.35157 -45.2274 26.2142 72.7428
1 1 5.37803 5.53697 4.93989 3.48578 -7.2837 -13.7361
6 2 4.96974 6.49496 5.15259 24.6876 -3.51645 28.9722
ITEM: TIMESTEP
93800
ITEM: NUMBER OF ATOMS
6
ITEM: BOX BOUNDS pp pp pp
0.0000000000000000e+00 1.0000000000000000e+01
0.0000000000000000e+00 1.0000000000000000e+01
0.0000000000000000e+00 1.0000000000000000e+01
ITEM: ATOMS id type x y z vx vy vz
3 2 4.44308 6.26431 5.67147 12.0527 66.6435 21.0933
2 1 4.87106 5.28336 5.59624 16.7735 1.68236 -3.67523
5 2 4.87359 5.28298 3.48268 -13.6171 -1.71263 9.02968
4 2 4.84217 4.69434 6.62781 -37.3065 26.5697 9.88979
1 1 5.15734 4.72514 4.39876 -10.2682 -7.8206 1.63536
6 2 5.50529 3.65666 4.27942 -38.647 -18.3567 -15.7056
ITEM: TIMESTEP
93900
ITEM: NUMBER OF ATOMS
6
ITEM: BOX BOUNDS pp pp pp
0.0000000000000000e+00 1.0000000000000000e+01
0.0000000000000000e+00 1.0000000000000000e+01
0.0000000000000000e+00 1.0000000000000000e+01
ITEM: ATOMS id type x y z vx vy vz
3 2 6.3287 4.24706 5.43243 6.24263 -13.6685 25.0617
2 1 5.65298 5.1641 4.98822 -0.778721 -7.35618 -8.49655
5 2 4.10297 3.81533 5.21413 -38.74 39.822 11.1461
4 2 6.1553 6.07859 4.80124 32.5962 -6.21977 -68.0074
1 1 4.33942 4.866 4.99875 0.822494 6.05195 10.68
6 2 3.506 5.49993 4.70937 -0.620439 -4.39247 5.78132
ITEM: TIMESTEP
94000
ITEM: NUMBER OF ATOMS
6
ITEM: BOX BOUNDS pp pp pp
0.0000000000000000e+00 1.0000000000000000e+01
0.0000000000000000e+00 1.0000000000000000e+01
0.0000000000000000e+00 1.0000000000000000e+01
ITEM: ATOMS id type x y z vx vy vz
3 2 5.7459 4.14542 3.93953 -53.7585 -41.4403 -8.10879
2 1 5.08043 4.36335 4.74561 -6.56618 2.3421 2.86765
5 2 5.45442 6.46247 4.81634 19.554 14.8843 -18.6644
4 2 4.22266 3.59901 5.14526 0.894389 1.80844 34.77
1 1 4.95496 5.62653 5.26805 4.4486 -0.227557 -5.93937
6 2 4.15778 5.91334 5.93796 58.5434 -0.449478 28.6061
ITEM: TIMESTEP
94100
ITEM: NUMBER OF ATOMS
6
ITEM: BOX BOUNDS pp pp pp
0.0000000000000000e+00 1.0000000000000000e+01
0.0000000000000000e+00 1.0000000000000000e+01
0.0000000000000000e+00 1.0000000000000000e+01
ITEM: ATOMS id type x y z vx vy vz
3 2 4.13908 5.66754 6.25632 34.5793 11.9476 17.7217
2 1 4.55128 4.86808 5.49079 6.16463 4.66259 8.83859
5 2 5.85983 6.15054 4.31408 -6.2407 -31.8151 7.32128
4 2 4.22189 3.85698 5.60722 -59.3026 51.9136 2.35338
1 1 5.4449 5.14302 4.48976 -2.81462 -4.2314 -8.53468
6 2 5.82716 4.19234 4.05601 -8.95497 -37.1841 -31.0178
ITEM: TIMESTEP
94200
ITEM: NUMBER OF ATOMS
6
ITEM: BOX BOUNDS pp pp pp
0.0000000000000000e+00 1.0000000000000000e+01
0.0000000000000000e+00 1.0000000000000000e+01
0.0000000000000000e+00 1.0000000000000000e+01
ITEM: ATOMS id type x y z vx vy vz
3 2 5.64331 5.04949 6.33702 -39.5569 -6.55877 -18.0328
2 1 5.44112 5.38744 5.34989 14.4951 0.232411 -5.43948
5 2 4.3582 3.59838 5.05965 -43.5178 -9.67262 41.7828
4 2 5.6825 6.46207 5.02215 46.4334 -3.68831 -20.1884
1 1 4.57317 4.61075 4.64284 -9.64295 4.30073 1.15996
6 2 4.14811 4.91125 3.66963 -21.1768 -34.0976 47.4335
ITEM: TIMESTEP
94300
ITEM: NUMBER OF ATOMS
6
ITEM: BOX BOUNDS pp pp pp
0.0000000000000000e+00 1.0000000000000000e+01
0.0000000000000000e+00 1.0000000000000000e+01
0.0000000000000000e+00 1.0000000000000000e+01
ITEM: ATOMS id type x y z vx vy vz
3 2 5.86793 5.01383 3.68032 -25.7944 -57.2184 -29.9794
2 1 5.4892 4.65123 4.68476 -0.286775 -9.67223 -6.42685
5 2 4.08834 6.25102 4.94048 8.64973 -39.0346 4.94411
4 2 5.70479 3.69191 5.08571 -28.6286 0.864542 -0.97762
1 1 4.5379 5.35853 5.32826 3.42257 17.307 3.58826
6 2 4.01856 4.92652 6.14014 8.40691 4.41198 59.8377
ITEM: TIMESTEP
94400
ITEM: NUMBER OF ATOMS
6
ITEM: BOX BOUNDS pp pp pp
0.0000000000000000e+00 1.0000000000000000e+01
0.0000000000000000e+00 1.0000000000000000e+01
0.0000000000000000e+00 1.0000000000000000e+01
ITEM: ATOMS id type x y z vx vy vz
3 2 4.00703 4.31398 6.00424 22.8175 -1.29067 22.5372
2 1 4.5915 4.51199 5.14681 -8.05557 1.16519 6.54769
5 2 5.65551 6.30344 5.5083 71.5355 22.6682 36.3745
4 2 4.47022 3.78842 4.34517 -50.1938 6.12566 21.4869
1 1 5.40421 5.50439 4.87295 6.94649 -2.1062 -14.0811
6 2 5.92084 5.39855 3.90871 -30.9432 -16.29 9.37049
ITEM: TIMESTEP
94500
ITEM: NUMBER OF ATOMS
6
ITEM: BOX BOUNDS pp pp pp
0.0000000000000000e+00 1.0000000000000000e+01
0.0000000000000000e+00 1.0000000000000000e+01
0.0000000000000000e+00 1.0000000000000000e+01
ITEM: ATOMS id type x y z vx vy vz
3 2 4.51749 4.85196 6.4395 -26.6684 16.3264 -2.17722
2 1 4.98475 5.30551 5.57898 11.4084 3.48866 3.63289
5 2 4.68252 3.58929 4.305 -54.2018 11.886 9.74197
4 2 5.5246 6.25707 5.73481 44.7776 13.5507 -4.78832
1 1 4.99358 4.71578 4.4185 -9.34792 -4.28484 2.07567
6 2 5.53603 5.04746 3.55266 11.5403 -32.2757 -70.8
ITEM: TIMESTEP
94600
ITEM: NUMBER OF ATOMS
6
ITEM: BOX BOUNDS pp pp pp
0.0000000000000000e+00 1.0000000000000000e+01
0.0000000000000000e+00 1.0000000000000000e+01
0.0000000000000000e+00 1.0000000000000000e+01
ITEM: ATOMS id type x y z vx vy vz
3 2 6.02073 5.50917 3.9227 23.2021 -38.9226 -31.7064
2 1 5.64817 5.01392 4.91665 1.38133 -8.52583 -5.55201
5 2 3.6276 5.26876 4.37499 -38.3075 -18.9981 -7.66387
4 2 6.41004 4.70343 5.63685 -5.62723 -15.0494 -19.4732
1 1 4.3617 4.98119 5.08048 -1.11008 10.8572 7.65056
6 2 3.82652 4.57646 6.10158 17.5004 45.1888 33.837
ITEM: TIMESTEP
94700
ITEM: NUMBER OF ATOMS
6
ITEM: BOX BOUNDS pp pp pp
0.0000000000000000e+00 1.0000000000000000e+01
0.0000000000000000e+00 1.0000000000000000e+01
0.0000000000000000e+00 1.0000000000000000e+01
ITEM: ATOMS id type x y z vx vy vz
3 2 4.91455 3.46602 5.38182 -18.4002 30.4339 -32.6274
2 1 4.94236 4.38781 4.80297 -8.61883 3.72628 8.38636
5 2 5.20511 5.84531 6.35873 51.7518 21.1343 -31.7708
4 2 4.69983 4.16667 3.68633 -47.3856 -13.01 16.2417
1 1 5.06662 5.62157 5.20255 11.5945 -5.74286 -2.57511
6 2 5.07593 6.40981 4.50909 -21.4247 -14.5286 -21.0908
ITEM: TIMESTEP
94800
ITEM: NUMBER OF ATOMS
6
ITEM: BOX BOUNDS pp pp pp
0.0000000000000000e+00 1.0000000000000000e+01
0.0000000000000000e+00 1.0000000000000000e+01
0.0000000000000000e+00 1.0000000000000000e+01
ITEM: ATOMS id type x y z vx vy vz
3 2 3.60581 4.43621 5.46952 -8.40017 22.3867 5.94211
2 1 4.59089 4.96041 5.52196 5.51885 13.2764 4.49722
5 2 5.13767 4.59161 3.58891 -29.8914 -3.11201 4.23707
4 2 4.93867 5.32674 6.47834 13.4166 -40.978 -51.4199
1 1 5.39624 5.06123 4.46547 -3.48885 -6.14191 3.37016
6 2 6.47361 5.38716 4.61485 0.685308 -63.3118 -52.5077
ITEM: TIMESTEP
94900
ITEM: NUMBER OF ATOMS
6
ITEM: BOX BOUNDS pp pp pp
0.0000000000000000e+00 1.0000000000000000e+01
0.0000000000000000e+00 1.0000000000000000e+01
0.0000000000000000e+00 1.0000000000000000e+01
ITEM: ATOMS id type x y z vx vy vz
3 2 6.2056 5.57968 4.56032 -37.4129 -54.6942 21.3289
2 1 5.50823 5.33164 5.30047 6.49613 -4.6372 -11.971
5 2 4.63111 4.42976 3.63986 -13.8418 -21.7354 5.84704
4 2 5.60218 5.57062 6.33066 25.2851 24.0862 9.14466
1 1 4.48901 4.67461 4.71921 -0.628034 4.46265 6.98262
6 2 3.59647 4.34505 5.23651 -43.9552 54.4235 23.1208
ITEM: TIMESTEP
95000
ITEM: NUMBER OF ATOMS
6
ITEM: BOX BOUNDS pp pp pp
0.0000000000000000e+00 1.0000000000000000e+01
0.0000000000000000e+00 1.0000000000000000e+01
0.0000000000000000e+00 1.0000000000000000e+01
ITEM: ATOMS id type x y z vx vy vz
2 1 5.36294 4.54115 4.66089 -9.8144 -3.26513 -3.17596
4 2 5.2654 4.49105 3.59588 -54.0284 -25.4045 45.7516
6 2 3.94083 6.16521 4.80271 5.63251 -24.2188 -6.62639
3 2 6.08544 4.00852 5.12796 7.75415 -40.0358 2.16641
5 2 4.9814 5.60694 6.40422 38.496 29.9377 -2.28407
1 1 4.61435 5.43601 5.34507 9.99448 8.27695 -0.097556
ITEM: TIMESTEP
95100
ITEM: NUMBER OF ATOMS
6
ITEM: BOX BOUNDS pp pp pp
0.0000000000000000e+00 1.0000000000000000e+01
0.0000000000000000e+00 1.0000000000000000e+01
0.0000000000000000e+00 1.0000000000000000e+01
ITEM: ATOMS id type x y z vx vy vz
2 1 4.52623 4.56886 5.20336 -8.27486 9.49825 6.69567
4 2 4.57831 4.28362 6.1603 25.414 -25.5248 43.1735
6 2 6.32541 5.58613 5.49421 36.6342 -20.0262 -39.1087
3 2 3.64769 4.36751 4.55159 -0.581424 45.2129 5.06586
5 2 5.46638 5.90444 3.83044 -26.3047 -36.5607 16.8522
1 1 5.47249 5.41921 4.79373 5.32404 -6.40169 -8.87615
ITEM: TIMESTEP
95200
ITEM: NUMBER OF ATOMS
6
ITEM: BOX BOUNDS pp pp pp
0.0000000000000000e+00 1.0000000000000000e+01
0.0000000000000000e+00 1.0000000000000000e+01
0.0000000000000000e+00 1.0000000000000000e+01
ITEM: ATOMS id type x y z vx vy vz
2 1 5.08641 5.34833 5.55561 6.04504 6.12675 -6.28021
4 2 4.27119 5.42036 6.34164 -8.89076 33.5854 31.3443
6 2 3.99934 4.25165 4.14336 -9.02593 32.1831 11.0121
3 2 6.05981 5.72334 5.69285 70.2799 -48.6647 -18.7378
5 2 5.81614 4.45995 3.85994 16.9264 -24.2678 7.77888
1 1 4.9015 4.66378 4.44138 -11.8598 -5.52554 3.64532
ITEM: TIMESTEP
95300
ITEM: NUMBER OF ATOMS
6
ITEM: BOX BOUNDS pp pp pp
0.0000000000000000e+00 1.0000000000000000e+01
0.0000000000000000e+00 1.0000000000000000e+01
0.0000000000000000e+00 1.0000000000000000e+01
ITEM: ATOMS id type x y z vx vy vz
2 1 5.61896 4.90997 4.83414 1.06361 -10.3329 -5.49469
4 2 5.93171 4.61678 3.81996 -49.0915 -39.5553 -9.74168
6 2 3.59627 5.05147 4.33162 -14.5024 5.37315 -19.701
3 2 6.50756 5.1593 5.59765 39.9754 16.7515 -6.10092
5 2 4.09889 5.52257 6.11022 24.1792 49.988 -23.6343
1 1 4.36996 5.06061 5.17781 -1.11067 7.60073 10.4609
ITEM: TIMESTEP
95400
ITEM: NUMBER OF ATOMS
6
ITEM: BOX BOUNDS pp pp pp
0.0000000000000000e+00 1.0000000000000000e+01
0.0000000000000000e+00 1.0000000000000000e+01
0.0000000000000000e+00 1.0000000000000000e+01
ITEM: ATOMS id type x y z vx vy vz
2 1 4.80528 4.40499 4.84937 -11.7051 -0.566791 7.84431
4 2 5.27622 3.55492 5.50074 11.8077 -4.71403 -4.54574
6 2 6.03434 5.70233 5.85097 -5.16014 -16.8105 -36.0394
3 2 3.99199 4.10268 4.06896 -22.7705 33.6197 59.5201
5 2 4.90125 6.59349 4.63827 0.463186 14.4227 -2.24764
1 1 5.17783 5.59889 5.14584 13.0193 -1.65859 -9.24471
ITEM: TIMESTEP
95500
ITEM: NUMBER OF ATOMS
6
ITEM: BOX BOUNDS pp pp pp
0.0000000000000000e+00 1.0000000000000000e+01
0.0000000000000000e+00 1.0000000000000000e+01
0.0000000000000000e+00 1.0000000000000000e+01
ITEM: ATOMS id type x y z vx vy vz
2 1 4.65347 5.03442 5.55873 6.94262 15.1262 -3.44133
4 2 3.57589 5.30778 5.45233 61.6633 19.135 20.4533
6 2 4.96541 5.13804 3.44446 -0.748904 7.4084 -3.70595
3 2 5.11921 5.15925 6.52602 21.7048 -31.8405 4.22931
5 2 6.39565 4.80002 4.44108 -53.3225 -33.671 4.41035
1 1 5.34203 4.93155 4.45285 -9.4012 -11.856 1.31085
ITEM: TIMESTEP
95600
ITEM: NUMBER OF ATOMS
6
ITEM: BOX BOUNDS pp pp pp
0.0000000000000000e+00 1.0000000000000000e+01
0.0000000000000000e+00 1.0000000000000000e+01
0.0000000000000000e+00 1.0000000000000000e+01
ITEM: ATOMS id type x y z vx vy vz
2 1 5.57832 5.27553 5.19404 -3.34394 -3.15266 -9.04066
4 2 6.53419 4.96175 4.98781 2.88293 -61.2837 3.73234
6 2 4.40768 3.97218 4.08377 6.74934 6.47117 21.137
3 2 5.46964 6.02488 5.96692 50.512 7.77888 -56.0046
5 2 3.53011 5.10015 5.16787 -20.5376 40.7602 -4.57441
1 1 4.42678 4.71949 4.78879 0.0201361 3.67913 12.0374
ITEM: TIMESTEP
95700
ITEM: NUMBER OF ATOMS
6
ITEM: BOX BOUNDS pp pp pp
0.0000000000000000e+00 1.0000000000000000e+01
0.0000000000000000e+00 1.0000000000000000e+01
0.0000000000000000e+00 1.0000000000000000e+01
ITEM: ATOMS id type x y z vx vy vz
2 1 5.24353 4.45425 4.6576 -9.33634 0.496085 10.6787
4 2 6.30806 4.20702 4.89579 -10.2727 21.2226 -28.8608
6 2 5.4356 6.0929 5.9984 68.7034 21.6416 -15.6139
3 2 4.66126 3.86897 3.98362 -51.895 -31.7818 4.9455
5 2 3.8043 6.01569 5.00046 2.21992 29.0651 14.1965
1 1 4.73912 5.53022 5.35277 8.60156 -3.86527 -8.55281
ITEM: TIMESTEP
95800
ITEM: NUMBER OF ATOMS
6
ITEM: BOX BOUNDS pp pp pp
0.0000000000000000e+00 1.0000000000000000e+01
0.0000000000000000e+00 1.0000000000000000e+01
0.0000000000000000e+00 1.0000000000000000e+01
ITEM: ATOMS id type x y z vx vy vz
2 1 4.4736 4.66872 5.29811 3.85073 8.07051 9.21442
4 2 3.4446 5.06066 5.153 -10.3407 53.7988 30.6656
6 2 5.30858 6.22644 3.93011 12.686 13.4853 8.06437
3 2 4.74257 3.91594 6.15642 13.7278 14.0754 -9.28304
5 2 6.59908 5.07316 4.97378 -4.35019 -36.9902 3.01739
1 1 5.51865 5.30807 4.68414 -4.83453 -11.794 -11.9388
ITEM: TIMESTEP
95900
ITEM: NUMBER OF ATOMS
6
ITEM: BOX BOUNDS pp pp pp
0.0000000000000000e+00 1.0000000000000000e+01
0.0000000000000000e+00 1.0000000000000000e+01
0.0000000000000000e+00 1.0000000000000000e+01
ITEM: ATOMS id type x y z vx vy vz
2 1 5.19429 5.39738 5.52288 15.6383 5.00001 -2.59555
4 2 6.07581 5.26143 6.20945 -20.5946 -23.4895 -24.8854
6 2 5.39846 3.77769 3.994 -28.4722 0.150219 59.7434
3 2 4.50733 6.20571 5.66055 19.2525 14.6298 -19.8919
5 2 3.83629 4.94005 3.9645 17.2344 23.7983 16.1251
1 1 4.8212 4.58707 4.49166 -14.5826 -6.26626 -0.0136287
ITEM: TIMESTEP
96000
ITEM: NUMBER OF ATOMS
6
ITEM: BOX BOUNDS pp pp pp
0.0000000000000000e+00 1.0000000000000000e+01
0.0000000000000000e+00 1.0000000000000000e+01
0.0000000000000000e+00 1.0000000000000000e+01
ITEM: ATOMS id type x y z vx vy vz
5 2 3.55902 4.60908 4.98529 40.8079 25.8222 32.6539
2 1 5.60075 4.82568 4.77244 -4.05054 -13.471 -5.56105
3 2 5.87833 3.88196 4.39253 -26.6922 -4.63263 26.6196
6 2 4.25443 6.04799 5.87255 51.508 33.7823 -24.1678
1 1 4.38899 5.18105 5.2023 -0.863876 6.12599 5.43548
4 2 6.43297 5.38041 5.05243 -7.06307 32.5518 -33.6095
ITEM: TIMESTEP
96100
ITEM: NUMBER OF ATOMS
6
ITEM: BOX BOUNDS pp pp pp
0.0000000000000000e+00 1.0000000000000000e+01
0.0000000000000000e+00 1.0000000000000000e+01
0.0000000000000000e+00 1.0000000000000000e+01
ITEM: ATOMS id type x y z vx vy vz
5 2 6.37241 5.8261 5.11548 47.3119 -32.1669 -39.6339
2 1 4.70745 4.42783 4.96347 -9.65552 5.71954 10.3216
3 2 5.20922 3.45317 4.9631 39.0404 -20.6015 -4.45485
6 2 4.71063 6.41483 4.96267 27.0189 9.43611 35.4365
1 1 5.29924 5.57333 5.04522 2.7669 -3.60259 -12.2774
4 2 3.63044 4.29166 4.85708 -31.2859 18.1065 31.9576
ITEM: TIMESTEP
96200
ITEM: NUMBER OF ATOMS
6
ITEM: BOX BOUNDS pp pp pp
0.0000000000000000e+00 1.0000000000000000e+01
0.0000000000000000e+00 1.0000000000000000e+01
0.0000000000000000e+00 1.0000000000000000e+01
ITEM: ATOMS id type x y z vx vy vz
5 2 5.01551 5.29828 3.51078 22.0816 23.3941 6.76466
2 1 4.72354 5.1841 5.57388 14.5943 3.87174 -7.71526
3 2 3.98778 6.05437 5.67948 27.8821 36.8974 -8.85643
6 2 6.12283 4.06174 4.24054 -4.52551 -47.2226 -13.1824
1 1 5.26377 4.80944 4.42725 -19.5707 -5.75146 6.93881
4 2 5.02755 4.66221 6.5576 13.8606 9.32992 24.5265
ITEM: TIMESTEP
96300
ITEM: NUMBER OF ATOMS
6
ITEM: BOX BOUNDS pp pp pp
0.0000000000000000e+00 1.0000000000000000e+01
0.0000000000000000e+00 1.0000000000000000e+01
0.0000000000000000e+00 1.0000000000000000e+01
ITEM: ATOMS id type x y z vx vy vz
5 2 4.13497 3.62948 4.83662 -15.0834 15.5428 60.6531
2 1 5.62267 5.23936 5.11122 -5.00207 -14.0417 -12.6982
3 2 6.52029 4.53936 5.32343 -4.56093 29.7027 18.7352
6 2 3.53448 5.45054 4.78564 35.0927 -0.338237 11.6086
1 1 4.37622 4.76546 4.871 2.83868 13.4105 7.62071
4 2 5.82595 6.32274 5.26794 10.3307 -37.3858 -30.4929
ITEM: TIMESTEP
96400
ITEM: NUMBER OF ATOMS
6
ITEM: BOX BOUNDS pp pp pp
0.0000000000000000e+00 1.0000000000000000e+01
0.0000000000000000e+00 1.0000000000000000e+01
0.0000000000000000e+00 1.0000000000000000e+01
ITEM: ATOMS id type x y z vx vy vz
5 2 5.47484 6.47044 5.38757 -25.4956 -20.4777 -43.2206
2 1 5.16771 4.39355 4.70433 -11.9577 -5.61357 4.69363
3 2 6.09785 4.10977 4.25334 -39.6291 17.7592 -20.3852
6 2 3.85589 5.50355 5.73574 37.244 12.4584 22.3888
1 1 4.84675 5.63419 5.28126 13.7858 2.98277 -3.34563
4 2 4.40157 3.58525 4.79689 6.09582 21.6089 25.1542
ITEM: TIMESTEP
96500
ITEM: NUMBER OF ATOMS
6
ITEM: BOX BOUNDS pp pp pp
0.0000000000000000e+00 1.0000000000000000e+01
0.0000000000000000e+00 1.0000000000000000e+01
0.0000000000000000e+00 1.0000000000000000e+01
ITEM: ATOMS id type x y z vx vy vz
5 2 5.47546 6.23629 4.29329 21.3359 36.4201 21.1831
2 1 4.48915 4.79359 5.45206 2.24974 9.0952 4.66735
3 2 3.644 5.45745 5.68792 37.1848 33.7428 14.4521
6 2 6.22041 4.57843 4.12286 -19.9591 -37.2117 -35.2452
1 1 5.52848 5.20333 4.56881 -5.30079 -11.2778 -6.71288
4 2 4.45254 3.76418 5.649 -2.20491 -6.9429 23.9847
ITEM: TIMESTEP
96600
ITEM: NUMBER OF ATOMS
6
ITEM: BOX BOUNDS pp pp pp
0.0000000000000000e+00 1.0000000000000000e+01
0.0000000000000000e+00 1.0000000000000000e+01
0.0000000000000000e+00 1.0000000000000000e+01
ITEM: ATOMS id type x y z vx vy vz
5 2 4.70659 3.45992 4.6943 -43.7874 -29.2587 39.2794
2 1 5.30752 5.42243 5.43301 13.601 0.541496 -3.9826
3 2 5.77773 4.96406 6.28145 14.8542 -2.94209 39.5665
6 2 4.23806 4.95034 3.57748 -22.9207 39.3667 -39.6976
1 1 4.68238 4.58597 4.56946 -10.6704 -1.11643 5.08023
4 2 5.40047 6.52517 5.41922 16.9327 -0.314857 -52.2278
ITEM: TIMESTEP
96700
ITEM: NUMBER OF ATOMS
6
ITEM: BOX BOUNDS pp pp pp
0.0000000000000000e+00 1.0000000000000000e+01
0.0000000000000000e+00 1.0000000000000000e+01
0.0000000000000000e+00 1.0000000000000000e+01
ITEM: ATOMS id type x y z vx vy vz
5 2 3.98605 6.28043 5.12714 6.83828 14.7453 -1.86879
2 1 5.55202 4.74674 4.7205 -1.64124 -10.3264 -8.06836
3 2 6.35819 5.29686 4.15315 -27.8491 -20.9456 -22.0894
6 2 3.78807 4.61509 6.09075 35.3962 8.95446 46.4351
1 1 4.45155 5.26358 5.25543 1.51593 11.9793 3.14636
4 2 5.82757 3.68419 4.91752 -12.8921 -22.4498 36.1741
ITEM: TIMESTEP
96800
ITEM: NUMBER OF ATOMS
6
ITEM: BOX BOUNDS pp pp pp
0.0000000000000000e+00 1.0000000000000000e+01
0.0000000000000000e+00 1.0000000000000000e+01
0.0000000000000000e+00 1.0000000000000000e+01
ITEM: ATOMS id type x y z vx vy vz
5 2 5.19137 6.4703 5.66094 19.0803 -30.6368 2.39053
2 1 4.6585 4.43831 5.05308 -2.69868 1.18709 7.50741
3 2 3.78746 4.24468 5.7097 3.32294 23.7483 15.985
6 2 6.18947 5.81649 4.16897 -54.8913 -10.6389 -15.4017
1 1 5.34735 5.553 4.95368 10.8391 -2.48862 -9.13921
4 2 4.76452 3.57161 4.38167 -64.514 33.0366 16.4709
ITEM: TIMESTEP
96900
ITEM: NUMBER OF ATOMS
6
ITEM: BOX BOUNDS pp pp pp
0.0000000000000000e+00 1.0000000000000000e+01
0.0000000000000000e+00 1.0000000000000000e+01
0.0000000000000000e+00 1.0000000000000000e+01
ITEM: ATOMS id type x y z vx vy vz
5 2 5.02528 3.70611 4.25282 -35.9567 40.731 -2.96141
2 1 4.88087 5.26223 5.58156 10.5885 2.09659 -5.55284
3 2 4.53724 4.67366 6.36986 -5.04116 20.2722 -16.1581
6 2 5.45447 5.24539 3.51762 6.32807 -41.1648 5.07002
1 1 5.13736 4.74823 4.40634 -12.4556 -4.91694 6.37183
4 2 4.76825 6.24978 6.00572 56.918 13.7691 4.29018
ITEM: TIMESTEP
97000
ITEM: NUMBER OF ATOMS
6
ITEM: BOX BOUNDS pp pp pp
0.0000000000000000e+00 1.0000000000000000e+01
0.0000000000000000e+00 1.0000000000000000e+01
0.0000000000000000e+00 1.0000000000000000e+01
ITEM: ATOMS id type x y z vx vy vz
5 2 3.64544 5.20038 4.28873 -30.9683 4.01337 -1.67818
2 1 5.68138 5.17085 4.99573 -5.41012 -9.38179 -7.93828
3 2 6.07471 5.88288 4.29165 9.45454 -27.2044 -37.4706
6 2 3.83938 4.11029 5.59749 -32.834 43.9213 37.0953
1 1 4.32863 4.8461 5.02918 10.1473 7.93922 7.83677
4 2 6.32366 4.60412 5.52715 -2.10114 -3.54054 3.26307
ITEM: TIMESTEP
97100
ITEM: NUMBER OF ATOMS
6
ITEM: BOX BOUNDS pp pp pp
0.0000000000000000e+00 1.0000000000000000e+01
0.0000000000000000e+00 1.0000000000000000e+01
0.0000000000000000e+00 1.0000000000000000e+01
ITEM: ATOMS id type x y z vx vy vz
5 2 4.77693 5.88924 6.40022 45.054 -5.55822 -1.15487
2 1 5.05207 4.36556 4.71509 -9.12779 6.83128 8.722
3 2 4.88254 3.46406 5.2611 -9.2434 -15.5434 18.6883
6 2 5.21172 6.47969 4.56075 -5.67992 12.4641 -13.4503
1 1 4.92397 5.62868 5.29839 10.3896 -2.5596 -6.05636
4 2 5.41672 4.23522 3.61922 -45.1666 -42.2642 -35.8471
ITEM: TIMESTEP
97200
ITEM: NUMBER OF ATOMS
6
ITEM: BOX BOUNDS pp pp pp
0.0000000000000000e+00 1.0000000000000000e+01
0.0000000000000000e+00 1.0000000000000000e+01
0.0000000000000000e+00 1.0000000000000000e+01
ITEM: ATOMS id type x y z vx vy vz
5 2 5.44466 4.47192 3.59881 -45.1052 21.3971 10.3141
2 1 4.55758 4.84695 5.51091 6.00699 10.0856 8.27499
3 2 3.71742 3.9832 5.28062 -33.6183 26.8384 -14.8685
6 2 6.18538 5.98862 4.54285 -5.14459 -45.1016 -16.8857
1 1 5.46322 5.15762 4.50211 -0.000971166 -10.0148 -7.77436
4 2 4.40712 5.50143 6.42448 12.2999 -3.9778 15.4746
ITEM: TIMESTEP
97300
ITEM: NUMBER OF ATOMS
6
ITEM: BOX BOUNDS pp pp pp
0.0000000000000000e+00 1.0000000000000000e+01
0.0000000000000000e+00 1.0000000000000000e+01
0.0000000000000000e+00 1.0000000000000000e+01