6
energy=-373.395661 Lattice="12.718 0.0 0.0 0.0 12.718 0.0 0.0 0.0 12.718" Properties=species:S:1:pos:R:3:Z:I:1:force:R:3
C 6.335835 6.799002 5.944326 6 0.11163789 -1.87195573 0.58749132
H 6.689075 6.480849 4.970288 1 0.01619848 0.15061430 -0.24578684
H 6.170514 7.809903 6.170332 1 -0.23589066 1.62291284 -0.08943177
C 6.145423 5.908765 6.927426 6 0.36781457 -0.78442254 0.31582323
H 5.841930 6.195529 7.945036 1 -0.03918210 0.14583822 -0.31886793
H 6.366052 4.817784 6.842478 1 -0.21825082 0.73434410 -0.24869733
6
energy=-373.320644 Lattice="12.718 0.0 0.0 0.0 12.718 0.0 0.0 0.0 12.718" Properties=species:S:1:pos:R:3:Z:I:1:force:R:3
C 6.144822 6.294327 6.948337 6 0.31554915 -0.56956249 1.19875919
H 5.807119 7.273765 7.330976 1 -0.07760623 -0.74591047 0.56026589
H 6.357039 5.374947 7.587341 1 -0.57113755 1.36994902 -0.51237957
C 6.446830 6.297117 5.665760 6 0.85017803 -0.46732302 -1.01457037
H 6.920479 5.463286 5.126643 1 -0.31077923 0.04923306 0.21148933
H 6.365358 7.215440 5.108390 1 -0.20717553 0.35328011 -0.43367805
6
energy=-373.349952 Lattice="12.718 0.0 0.0 0.0 12.718 0.0 0.0 0.0 12.718" Properties=species:S:1:pos:R:3:Z:I:1:force:R:3
C 5.962529 6.151033 6.863042 6 -0.15630724 -1.13846832 0.04385482
H 5.754993 5.129272 7.295234 1 0.29110514 0.81005543 -0.63672181
H 6.330236 6.161610 5.790054 1 -0.43882797 0.33008720 1.31937127
C 5.725126 7.186716 7.677738 6 0.51292568 0.89798773 -0.89359680
H 5.885741 8.244718 7.411364 1 0.03850024 -0.35888666 -0.30932193
H 5.393469 7.105477 8.697465 1 -0.24829572 -0.53363901 0.47932185
6
energy=-373.386120 Lattice="12.718 0.0 0.0 0.0 12.718 0.0 0.0 0.0 12.718" Properties=species:S:1:pos:R:3:Z:I:1:force:R:3
C 5.804103 6.147147 8.487360 6 0.38393745 0.34396140 -0.44041332
H 5.759317 6.133636 9.540352 1 -0.28246571 -0.64013470 1.39970751
H 5.860663 5.244051 7.906324 1 -0.18076051 -0.49256098 -0.12314462
C 5.959097 7.342933 7.947255 6 0.28830057 0.66721666 -0.72189121
H 6.112647 7.455956 6.870984 1 -0.09539571 0.17581062 0.02601650
H 6.008478 8.245886 8.563536 1 -0.11416580 -0.05006096 -0.13884327
6
energy=-373.315257 Lattice="12.718 0.0 0.0 0.0 12.718 0.0 0.0 0.0 12.718" Properties=species:S:1:pos:R:3:Z:I:1:force:R:3
C 6.002604 5.976626 7.140641 6 -0.08441401 1.37369358 1.12593882
H 5.738813 6.564857 8.022381 1 -0.26010584 0.46712504 -0.10586576
H 6.095603 4.970043 7.490847 1 0.22114640 -1.08453580 -0.80923679
C 6.270796 6.585900 5.987134 6 0.55570784 -0.97860370 -0.55527023
H 6.651480 5.999980 5.130405 1 -0.26652640 0.27067925 0.18707257
H 6.220423 7.665635 5.840890 1 -0.16502740 -0.04425797 0.15626816
6
energy=-373.374481 Lattice="12.718 0.0 0.0 0.0 12.718 0.0 0.0 0.0 12.718" Properties=species:S:1:pos:R:3:Z:I:1:force:R:3
C 6.320024 5.664822 6.508104 6 -0.01983608 0.63386274 -0.38873359
H 6.133701 5.406637 7.510185 1 -0.16923527 -0.66098276 1.38798532
H 6.486789 4.898920 5.778972 1 0.17621120 -0.58983874 -0.33581254
C 6.294937 6.936567 6.151086 6 -0.21800142 0.96487760 -1.32562986
H 6.413139 7.225812 5.099878 1 0.17792818 -0.18360055 -0.00183320
H 6.057060 7.809249 6.749665 1 0.05290203 -0.15150750 0.67110726
6
energy=-373.325830 Lattice="12.718 0.0 0.0 0.0 12.718 0.0 0.0 0.0 12.718" Properties=species:S:1:pos:R:3:Z:I:1:force:R:3
C 6.057639 6.895492 6.830221 6 0.12642020 -1.47455134 -1.48354301
H 6.037036 7.867472 6.315878 1 0.30757563 -0.50890550 -0.44740929
H 5.795617 7.043702 7.845089 1 -0.20368551 -0.35507371 1.35604037
C 6.269233 5.672041 6.240076 6 -0.16558945 2.18276016 0.00667253
H 6.224736 4.690790 6.710964 1 -0.02604324 0.20390560 0.39228943
H 6.499977 5.652553 5.166023 1 -0.03842928 -0.04859286 0.18161463
6
energy=-373.366699 Lattice="12.718 0.0 0.0 0.0 12.718 0.0 0.0 0.0 12.718" Properties=species:S:1:pos:R:3:Z:I:1:force:R:3
C 5.899942 6.393105 7.399831 6 -0.39534442 0.00008485 0.85767281
H 5.685877 7.389007 7.805459 1 0.06844127 -0.17124845 0.16100362
H 5.745067 5.528789 8.092229 1 0.26657422 0.62684208 -0.56547135
C 6.244601 6.269870 6.119713 6 -0.54691671 -0.98315558 0.71298850
H 6.345472 5.234544 5.764599 1 0.27913150 0.52666258 -0.57474430
H 6.248943 7.158351 5.508404 1 0.33014222 0.00012084 -0.60422819
6
energy=-373.324142 Lattice="12.718 0.0 0.0 0.0 12.718 0.0 0.0 0.0 12.718" Properties=species:S:1:pos:R:3:Z:I:1:force:R:3
C 6.426732 6.052866 5.866626 6 -0.64508047 1.44983634 0.11968597
H 6.589525 5.001050 5.797037 1 0.35895300 -0.79429147 -0.01393487
H 6.390560 6.629116 4.942726 1 0.23518977 -0.12507397 -0.22018018
C 6.101595 6.667850 7.018302 6 -0.13218874 -0.66021194 -1.24296266
H 5.776395 7.722474 6.975248 1 0.28599841 -0.47774268 0.60993398
H 6.031211 5.985625 7.858870 1 -0.10212738 0.60823397 0.74853094
6
energy=-373.411995 Lattice="12.718 0.0 0.0 0.0 12.718 0.0 0.0 0.0 12.718" Properties=species:S:1:pos:R:3:Z:I:1:force:R:3
C 6.057951 5.692616 6.825029 6 0.08919626 0.21549459 0.11886424
H 5.879333 5.156446 7.727222 1 -0.30240926 -0.47128509 0.87184731
H 6.353943 5.083500 5.989632 1 0.04727902 -0.17579828 -0.56208418
C 6.002465 7.017867 6.768898 6 0.64145419 -0.23984450 -0.78604079
H 6.301511 7.487207 5.838855 1 -0.13888389 0.38593366 -0.22549465
H 5.821942 7.662873 7.603671 1 -0.33522067 0.28891353 0.58761936
6
energy=-373.359456 Lattice="12.718 0.0 0.0 0.0 12.718 0.0 0.0 0.0 12.718" Properties=species:S:1:pos:R:3:Z:I:1:force:R:3
C 6.050100 5.845462 8.983913 6 -0.73021593 2.19774353 1.21686183
H 6.056665 4.806438 9.229083 1 0.16900285 -0.72953819 0.56549552
H 6.076388 6.026548 7.926794 1 0.19274751 0.40185086 -0.64225586
C 5.843118 6.840479 9.909097 6 0.01729788 -2.06353236 -0.43027905
H 5.708760 7.903246 9.700187 1 0.18324008 -0.12350303 -0.24963681
H 5.714651 6.529089 10.966521 1 0.16623377 0.32653393 -0.45341128
6
energy=-373.429839 Lattice="12.718 0.0 0.0 0.0 12.718 0.0 0.0 0.0 12.718" Properties=species:S:1:pos:R:3:Z:I:1:force:R:3
C 5.733477 6.569530 8.786324 6 0.15949541 1.33493160 -0.64867488
H 5.722100 7.328813 9.573092 1 0.11790830 -0.07129314 0.05195380
H 5.377515 5.599530 9.076600 1 -0.00372656 -0.65792057 -0.01009519
C 6.055697 6.918967 7.523440 6 -0.72553755 -1.06888651 0.65051373
H 5.960774 6.160714 6.734707 1 0.22431811 0.27485730 -0.01102387
H 6.291028 7.935841 7.237200 1 0.22748931 0.19024223 -0.02320165
6
energy=-373.382950 Lattice="12.718 0.0 0.0 0.0 12.718 0.0 0.0 0.0 12.718" Properties=species:S:1:pos:R:3:Z:I:1:force:R:3
C 6.286386 6.072266 6.042784 6 -0.06780929 0.44184902 -0.18826916
H 6.425451 5.015473 5.907265 1 0.19992347 -0.44432551 -0.44903937
H 6.368970 6.777552 5.234573 1 0.21988296 0.01106964 -0.69349335
C 5.957169 6.519601 7.238205 6 -0.23516766 -1.41467031 0.74197411
H 5.741087 7.524437 7.482637 1 -0.12782814 1.21766453 0.19973218
H 5.821489 5.767537 8.015279 1 0.00926678 0.19563846 0.37615729
6
energy=-373.301697 Lattice="12.718 0.0 0.0 0.0 12.718 0.0 0.0 0.0 12.718" Properties=species:S:1:pos:R:3:Z:I:1:force:R:3
C 6.161781 5.877447 6.388791 6 -0.00553045 -1.35102517 -1.01733894
H 6.062996 4.773009 6.640957 1 0.28254027 1.39630645 -0.46228931
H 6.370349 6.248837 5.374380 1 0.22191670 -0.89246088 -0.02993743
C 5.914841 6.848197 7.233231 6 -1.28950892 0.80300546 2.18273085
H 5.893638 7.896210 6.921893 1 0.23100504 -0.06355772 0.01454988
H 5.528738 6.666515 8.270841 1 0.56133598 0.10983555 -0.69694738
6
energy=-373.339950 Lattice="12.718 0.0 0.0 0.0 12.718 0.0 0.0 0.0 12.718" Properties=species:S:1:pos:R:3:Z:I:1:force:R:3
C 5.745435 6.351254 10.253867 6 0.53049352 1.08990529 -1.08030684
H 5.718554 7.336676 10.664019 1 -0.12794127 1.06088935 -0.09896389
H 5.594261 5.641926 10.997069 1 -0.38444550 -1.77036417 1.19270270
C 6.064933 6.048117 8.996693 6 0.29081717 -0.70807666 0.02244266
H 6.168149 4.966754 8.774957 1 -0.10331317 0.58541541 -0.34746376
H 6.317195 6.781562 8.214041 1 -0.20213873 -0.25744834 0.31128985
6
energy=-373.389099 Lattice="12.718 0.0 0.0 0.0 12.718 0.0 0.0 0.0 12.718" Properties=species:S:1:pos:R:3:Z:I:1:force:R:3
C 5.962872 6.913129 9.589674 6 -0.31423634 -0.40277748 0.67118336
H 5.807527 7.587019 8.746848 1 0.13081114 -0.13639146 -0.06835077
H 6.057720 7.346058 10.581194 1 0.22453049 0.49169709 0.03928906
C 5.891207 5.576217 9.540329 6 -0.01362377 1.25888808 0.36005600
H 5.969728 4.994554 10.456563 1 0.04747957 -0.23190442 -0.13872757
H 5.684686 5.129920 8.602176 1 -0.07549381 -0.97231632 -0.86537635
6
energy=-373.404822 Lattice="12.718 0.0 0.0 0.0 12.718 0.0 0.0 0.0 12.718" Properties=species:S:1:pos:R:3:Z:I:1:force:R:3
C 5.932457 7.373656 8.895420 6 0.19950644 1.21532225 0.60284750
H 5.971352 7.907352 7.944736 1 -0.06564700 -0.08360051 0.02927717
H 6.007875 7.945335 9.825266 1 -0.15289642 0.41616368 -0.27052858
C 5.879591 6.070060 9.035109 6 0.44609032 -1.42387075 0.26046271
H 5.932190 5.596743 10.031329 1 -0.17331150 0.16812456 -0.38676310
H 5.938924 5.404058 8.183280 1 -0.25275042 -0.28456527 -0.22834909
6
energy=-373.428172 Lattice="12.718 0.0 0.0 0.0 12.718 0.0 0.0 0.0 12.718" Properties=species:S:1:pos:R:3:Z:I:1:force:R:3
C 6.117716 6.899232 6.784770 6 -0.34250461 0.55604671 -0.61763444
H 6.009461 7.862701 6.271637 1 0.19112720 -0.07910879 0.18011670
H 5.894821 6.876012 7.835428 1 0.01532687 0.07012226 0.61294115
C 6.363765 5.784589 6.106536 6 -0.14773158 0.26737538 -0.59327785
H 6.345395 4.848969 6.643383 1 0.21894450 -0.55817301 -0.12415969
H 6.497190 5.816415 5.008828 1 0.06318696 -0.27263123 0.53999581
6
energy=-373.313588 Lattice="12.718 0.0 0.0 0.0 12.718 0.0 0.0 0.0 12.718" Properties=species:S:1:pos:R:3:Z:I:1:force:R:3
C 5.941147 6.140976 8.532059 6 0.45728748 0.78579242 -0.32548955
H 5.843574 5.340538 9.278331 1 0.07782015 -0.36223424 -0.83062324
H 6.224899 6.077497 7.435832 1 -0.47420895 -0.75729841 1.34407599
C 5.844920 7.388801 9.004399 6 0.09214172 0.15460414 -0.50908393
H 5.983399 8.215431 8.304900 1 -0.05082355 0.20645562 0.18157658
H 5.655759 7.639248 10.044334 1 -0.10131696 -0.03764098 0.13522830
6
energy=-373.374659 Lattice="12.718 0.0 0.0 0.0 12.718 0.0 0.0 0.0 12.718" Properties=species:S:1:pos:R:3:Z:I:1:force:R:3
C 6.096494 5.698206 6.667857 6 -0.06171218 1.19068387 0.33801855
H 5.935026 4.952779 7.426319 1 -0.25129929 -0.13281197 0.76300421
H 6.382093 5.192616 5.752833 1 0.11430824 0.56092204 -0.62783607
C 5.971215 7.031401 6.924434 6 0.21938211 -2.09054645 -0.18387360
H 6.164376 7.784623 6.176392 1 0.00985145 0.29164353 -0.24588146
H 5.694836 7.341953 7.931297 1 -0.03067071 0.17624153 -0.03434893
6
energy=-373.291237 Lattice="12.718 0.0 0.0 0.0 12.718 0.0 0.0 0.0 12.718" Properties=species:S:1:pos:R:3:Z:I:1:force:R:3
C 6.229533 6.870017 6.130024 6 -0.34485511 -2.80626238 2.48538642
H 6.545459 6.804121 5.147413 1 0.58734888 0.00588834 -2.21612076
H 6.094077 7.841236 6.548202 1 -0.27557566 0.67946232 0.43636537
C 6.108156 5.714237 6.861864 6 0.07888253 1.31186827 0.26332229
H 5.842421 5.732393 7.934788 1 -0.03406406 0.31473051 -0.36293615
H 6.311997 4.677398 6.556705 1 -0.01247089 0.48840865 -0.61003734
6
energy=-373.382887 Lattice="12.718 0.0 0.0 0.0 12.718 0.0 0.0 0.0 12.718" Properties=species:S:1:pos:R:3:Z:I:1:force:R:3
C 5.993114 5.983538 8.894760 6 -0.12366758 1.01687048 1.05897079
H 5.989767 5.154696 9.580246 1 -0.05816097 -0.39844774 0.58915020
H 6.094275 5.631272 7.886104 1 0.00822394 0.49082086 -0.83360212
C 5.892013 7.243536 9.384940 6 0.39053954 -0.57707372 -1.00473487
H 5.938479 8.151002 8.750271 1 -0.11877580 -0.50569470 0.22618679
H 5.842627 7.413245 10.461796 1 -0.09758269 -0.02567248 -0.02915427
6
energy=-373.415595 Lattice="12.718 0.0 0.0 0.0 12.718 0.0 0.0 0.0 12.718" Properties=species:S:1:pos:R:3:Z:I:1:force:R:3
C 6.008784 7.076277 6.597470 6 -0.32640281 -0.64706845 0.29880611
H 6.194218 6.832751 5.578415 1 0.33942905 0.12921294 -1.03409689
H 5.878235 8.103192 6.885141 1 0.09463929 0.54297315 0.08475956
C 5.816718 6.076053 7.454358 6 -0.15713514 0.50328712 0.09073481
H 5.546503 6.335763 8.467947 1 -0.02631989 -0.31898311 0.49828272
H 5.862802 5.036259 7.152009 1 0.07697837 -0.20550071 0.06930979
6
energy=-373.287781 Lattice="12.718 0.0 0.0 0.0 12.718 0.0 0.0 0.0 12.718" Properties=species:S:1:pos:R:3:Z:I:1:force:R:3
C 5.962879 5.728175 9.211205 6 0.51630154 -0.99809216 -1.49624941
H 6.122646 4.745970 9.751803 1 -0.33869629 1.48349416 0.22294051
H 5.990514 5.475958 8.103612 1 -0.26183156 0.66515361 1.00917414
C 5.902171 6.999909 9.650137 6 0.44174566 -1.58687778 0.85119311
H 5.866872 7.854716 9.004193 1 -0.17409055 0.36396408 -0.52224388
H 6.001925 7.202873 10.721221 1 -0.18318712 0.07654899 -0.05779124
6
energy=-373.357254 Lattice="12.718 0.0 0.0 0.0 12.718 0.0 0.0 0.0 12.718" Properties=species:S:1:pos:R:3:Z:I:1:force:R:3
C 5.810731 7.341576 8.353506 6 0.57509757 0.19694407 -1.42344446
H 6.050760 8.323098 7.880584 1 -0.14182472 -0.74909041 -0.10820187
H 5.503341 7.502125 9.382856 1 -0.15588712 -0.56678673 0.22586283
C 5.940247 6.139757 7.726549 6 0.04592405 0.97897754 1.37644878
H 5.758052 5.266918 8.365133 1 -0.07473842 -0.15122982 -0.43105655
H 6.318647 5.969379 6.706233 1 -0.24902129 0.28968691 0.35743656
6
energy=-373.317650 Lattice="12.718 0.0 0.0 0.0 12.718 0.0 0.0 0.0 12.718" Properties=species:S:1:pos:R:3:Z:I:1:force:R:3
C 6.110105 6.952892 8.737664 6 0.15562127 1.05538718 -1.28128344
H 5.997378 6.676707 7.685992 1 -0.10513660 -0.63708999 0.03127081
H 6.450692 8.020582 8.696575 1 -0.21216193 -0.79737319 1.12432313
C 5.808979 6.121312 9.731063 6 0.11988908 0.47674972 0.77692674
H 5.865910 6.382943 10.800986 1 0.11245345 0.12719976 -0.38593726
H 5.466084 5.109140 9.554268 1 -0.07249076 -0.22948141 -0.26328578
6
energy=-373.280634 Lattice="12.718 0.0 0.0 0.0 12.718 0.0 0.0 0.0 12.718" Properties=species:S:1:pos:R:3:Z:I:1:force:R:3
C 5.947106 7.142657 9.375736 6 0.15591026 2.02898700 1.15599092
H 5.949948 8.067078 8.736303 1 -0.08813234 -1.45037061 -0.36291301
H 5.997139 7.528028 10.408817 1 -0.14550089 -0.45303539 0.01846002
C 5.952645 5.837956 9.152052 6 0.53421494 -0.59621148 -1.20862401
H 6.043235 5.088333 9.947538 1 -0.18416414 0.30643509 -0.00242095
H 6.027420 5.429032 8.124891 1 -0.27572993 0.16474818 0.40467342
6
energy=-373.276719 Lattice="12.718 0.0 0.0 0.0 12.718 0.0 0.0 0.0 12.718" Properties=species:S:1:pos:R:3:Z:I:1:force:R:3
C 6.187214 6.948455 6.502811 6 0.65432308 0.14855742 -0.64301845
H 6.193431 7.816310 5.746080 1 -0.23278528 -1.28646627 1.17750747
H 6.161917 7.196239 7.600304 1 -0.17559259 -0.09210007 -1.09689921
C 6.404447 5.665964 6.122786 6 0.33709243 0.38526929 0.34499293
H 6.556135 4.864578 6.843173 1 -0.27754410 0.09646323 0.54011408
H 6.595526 5.243020 5.131788 1 -0.30484564 0.75636973 -0.32156296
6
energy=-373.413090 Lattice="12.718 0.0 0.0 0.0 12.718 0.0 0.0 0.0 12.718" Properties=species:S:1:pos:R:3:Z:I:1:force:R:3
C 6.138937 6.840846 6.814352 6 -0.15095523 0.82783667 1.28554324
H 6.010182 7.881829 6.500453 1 -0.10440383 -0.13308965 0.08424688
H 6.087299 6.609202 7.896162 1 -0.11125171 0.37209237 -0.43818623
C 6.421029 5.866193 5.979715 6 0.57772009 -1.19971462 0.13080497
H 6.626838 4.868696 6.417195 1 -0.18175244 0.30109182 -0.61851839
H 6.561346 6.040737 4.924614 1 -0.02901029 -0.16806696 -0.44642867
6
energy=-373.252990 Lattice="12.718 0.0 0.0 0.0 12.718 0.0 0.0 0.0 12.718" Properties=species:S:1:pos:R:3:Z:I:1:force:R:3
C 6.035776 7.163432 9.012607 6 -0.17532828 -2.68383561 1.69788986
H 6.010846 7.544111 8.013707 1 -0.20174432 -0.50763126 -1.03625610
H 6.220475 7.976080 9.685326 1 0.19216336 0.37616655 0.85695958
C 5.883815 5.855282 9.483352 6 0.00946732 3.11707915 -1.25440459
H 5.919961 5.657633 10.570532 1 0.00596342 -0.09051472 -0.62081901
H 5.625575 5.084053 8.752204 1 0.16801708 -0.21412882 0.35598286
6
energy=-373.349006 Lattice="12.718 0.0 0.0 0.0 12.718 0.0 0.0 0.0 12.718" Properties=species:S:1:pos:R:3:Z:I:1:force:R:3
C 6.074806 5.689705 6.900119 6 0.64849439 -0.30771396 -0.40435254
H 5.850400 5.542206 7.987998 1 0.02644536 0.34107919 -0.94679142
H 6.363086 4.768117 6.340230 1 -0.41646245 0.45367765 0.42852401
C 6.179950 6.885155 6.271988 6 -0.29781983 -1.06030416 2.13238707
H 6.502402 6.926402 5.247119 1 0.01449023 0.38457303 -0.43170653
H 6.008328 7.757722 6.920863 1 0.02736170 0.17596900 -0.78010565
6
energy=-373.402061 Lattice="12.718 0.0 0.0 0.0 12.718 0.0 0.0 0.0 12.718" Properties=species:S:1:pos:R:3:Z:I:1:force:R:3
C 6.372435 6.620356 5.829684 6 0.09701550 -0.97747550 1.33781432
H 6.790490 6.043968 5.016948 1 -0.00990955 -0.38348854 -0.27256695
H 6.298980 7.675794 5.630514 1 -0.28916858 0.50344241 0.07804024
C 6.106125 6.076751 7.044710 6 0.48010964 1.08253856 -0.89763960
H 5.807620 6.710590 7.871161 1 -0.28686024 0.27643133 0.13569418
H 6.285973 5.055806 7.347798 1 0.00689519 -0.49795979 -0.37637223
6
energy=-373.370426 Lattice="12.718 0.0 0.0 0.0 12.718 0.0 0.0 0.0 12.718" Properties=species:S:1:pos:R:3:Z:I:1:force:R:3
C 6.413871 6.170802 5.813081 6 -0.01745677 1.67714208 -0.21032462
H 6.778465 5.178852 5.576282 1 -0.09444234 -0.19223175 -0.23630615
H 6.428317 6.991143 5.042856 1 -0.01189856 -1.07800930 0.33407807
C 6.071670 6.529829 7.056546 6 0.55237054 -0.03865245 0.47156740
H 5.855493 7.597223 7.315252 1 -0.06657156 -0.97330671 -0.11304120
H 6.179963 5.778860 7.869447 1 -0.36016810 0.60826328 -0.25031147
6
energy=-373.412100 Lattice="12.718 0.0 0.0 0.0 12.718 0.0 0.0 0.0 12.718" Properties=species:S:1:pos:R:3:Z:I:1:force:R:3
C 5.906943 7.445809 8.381606 6 0.19952906 -1.46695424 0.23590043
H 6.085960 8.010661 7.478277 1 -0.06069196 -0.16215805 -0.51289585
H 5.837562 8.039271 9.266304 1 -0.17083450 0.54824083 0.72688275
C 5.873926 6.100030 8.507689 6 0.13444308 0.38725315 0.00299482
H 5.765058 5.597762 9.488377 1 -0.05288660 0.44390951 -0.34689863
H 5.996286 5.396612 7.677634 1 -0.04927163 0.25846393 -0.10617532
6
energy=-373.324053 Lattice="12.718 0.0 0.0 0.0 12.718 0.0 0.0 0.0 12.718" Properties=species:S:1:pos:R:3:Z:I:1:force:R:3
C 5.860039 6.014555 9.344297 6 0.19963345 0.84869502 0.17251035
H 5.949182 5.861281 10.383926 1 -0.04951640 -0.77462509 1.27282142
H 5.728015 5.239000 8.638207 1 -0.30108000 -1.15890604 -0.43471781
C 6.002456 7.244007 8.897035 6 0.71172660 1.65179972 -0.81220538
H 5.999534 7.393524 7.816413 1 -0.13937806 0.24938536 -0.10459204
H 6.272411 8.157525 9.479502 1 -0.42218624 -0.81643794 -0.10045256
6
energy=-373.360929 Lattice="12.718 0.0 0.0 0.0 12.718 0.0 0.0 0.0 12.718" Properties=species:S:1:pos:R:3:Z:I:1:force:R:3
C 5.807564 6.166930 9.539278 6 -0.23063686 -0.35354699 0.41490384
H 5.912108 6.503506 10.578134 1 -0.15021321 -0.81441088 0.12762811
H 5.452872 5.139917 9.255152 1 0.41572094 0.93227959 0.46691010
C 6.074252 7.118659 8.654432 6 -0.56849034 -0.49695757 -0.73614233
H 5.911155 6.917684 7.595239 1 0.26074141 0.29574444 -0.15483966
H 6.321205 8.110480 8.994418 1 0.27514269 0.44284147 -0.12084399
6
energy=-373.404050 Lattice="12.718 0.0 0.0 0.0 12.718 0.0 0.0 0.0 12.718" Properties=species:S:1:pos:R:3:Z:I:1:force:R:3
C 5.874286 7.263998 7.093936 6 -0.18439554 -0.47611517 0.58618109
H 6.123357 7.832859 6.214338 1 0.00874433 0.68069491 -0.11443011
H 5.565839 7.698245 8.059459 1 0.21416533 0.37307145 -0.59685734
C 5.923128 5.937603 7.033682 6 -0.27901631 -0.20008493 0.73782486
H 5.670384 5.347653 7.910291 1 -0.04007067 -0.15407655 0.17401444
H 6.174398 5.362108 6.169230 1 0.28355226 -0.22025011 -0.78072632
6
energy=-373.376937 Lattice="12.718 0.0 0.0 0.0 12.718 0.0 0.0 0.0 12.718" Properties=species:S:1:pos:R:3:Z:I:1:force:R:3
C 5.921965 6.109858 7.522866 6 -0.25476462 -0.09341082 0.05176509
H 5.638926 5.269460 8.174563 1 0.33175379 -0.05111871 -0.51977716
H 6.200230 6.007386 6.464613 1 -0.02410719 -0.55395537 0.36919834
C 5.823195 7.346238 7.992337 6 -0.21074628 0.18911969 -0.49043931
H 5.971959 8.184230 7.340597 1 0.34720716 0.57652402 -0.44236119
H 5.472372 7.619313 8.959612 1 -0.18714096 -0.06477642 1.03360426
6
energy=-373.425041 Lattice="12.718 0.0 0.0 0.0 12.718 0.0 0.0 0.0 12.718" Properties=species:S:1:pos:R:3:Z:I:1:force:R:3
C 6.089687 6.247365 8.633738 6 0.16296538 -1.38526047 -1.31423986
H 6.039275 5.138405 8.606749 1 0.06451108 0.55185992 0.00578704
H 6.345219 6.728337 7.674473 1 -0.02785021 -0.09796167 0.38455503
C 5.815379 6.927239 9.725760 6 -0.14740711 0.25784172 0.45599524
H 5.871796 8.005542 9.651708 1 -0.11904062 0.35818372 0.51122669
H 5.529043 6.419342 10.652483 1 0.06838728 0.32605057 -0.03210590
6
energy=-373.348628 Lattice="12.718 0.0 0.0 0.0 12.718 0.0 0.0 0.0 12.718" Properties=species:S:1:pos:R:3:Z:I:1:force:R:3
C 5.822005 6.327712 7.517637 6 -0.64498329 -1.22665877 0.81186137
H 5.536986 7.061017 8.319408 1 0.48622629 -0.57993999 -0.81001532
H 5.721727 5.226951 7.751406 1 0.12049381 1.14624849 0.23144676
C 6.130137 6.612797 6.257873 6 -0.19412717 -0.15781751 -1.22015182
H 6.251637 5.809136 5.469707 1 0.06471214 0.80577762 0.97526126
H 6.147164 7.638064 5.880648 1 0.16568046 0.01568014 0.02360429
6
energy=-373.449959 Lattice="12.718 0.0 0.0 0.0 12.718 0.0 0.0 0.0 12.718" Properties=species:S:1:pos:R:3:Z:I:1:force:R:3
C 6.112566 6.553917 7.029689 6 0.28050344 -0.38314504 -0.40336009
H 5.829251 7.569326 7.251200 1 -0.20789132 0.49336060 -0.06039011
H 6.155379 5.901997 7.897542 1 -0.01847288 -0.27507892 0.02904577
C 6.443475 6.150478 5.794220 6 0.28624780 0.57716422 -0.00083098
H 6.816265 5.144329 5.589065 1 -0.17633409 -0.01476946 0.01843019
H 6.472648 6.863725 4.944645 1 -0.16495541 -0.40322691 0.41632412
6
energy=-373.363770 Lattice="12.718 0.0 0.0 0.0 12.718 0.0 0.0 0.0 12.718" Properties=species:S:1:pos:R:3:Z:I:1:force:R:3
C 5.990262 6.362748 6.744252 6 -0.29794787 -0.97230809 -0.02892596
H 5.853576 5.305938 6.602272 1 0.05551736 -0.64238493 0.05401583
H 6.298283 6.897971 5.889275 1 0.52080766 0.69018537 -1.09173129
C 5.695438 6.987190 7.863908 6 -0.44159911 0.65150464 0.42002600
H 5.778066 8.080146 7.803923 1 -0.07175131 -0.14881144 0.75720636
H 5.283175 6.457908 8.735302 1 0.23523091 0.41760762 -0.10248322
6
energy=-373.394432 Lattice="12.718 0.0 0.0 0.0 12.718 0.0 0.0 0.0 12.718" Properties=species:S:1:pos:R:3:Z:I:1:force:R:3
C 5.757916 5.625731 10.077786 6 0.65589660 1.46100111 -1.23124973
H 5.821726 5.721069 11.152050 1 -0.04560986 0.04224943 0.30616924
H 5.537154 4.669668 9.661633 1 -0.35874577 -0.86403578 -0.20334818
C 6.055702 6.662644 9.257827 6 0.11699042 0.36059645 0.93139667
H 6.061928 6.700736 8.162769 1 -0.17613818 -0.62179449 0.14553534
H 6.355494 7.641474 9.678078 1 -0.19215205 -0.38154478 0.05196563
6
energy=-373.431836 Lattice="12.718 0.0 0.0 0.0 12.718 0.0 0.0 0.0 12.718" Properties=species:S:1:pos:R:3:Z:I:1:force:R:3
C 5.798964 7.326961 8.882486 6 0.19593260 -1.59115764 -0.49105483
H 5.978533 8.324715 8.545747 1 0.09359234 0.66505436 -0.41734125
H 5.495008 7.205905 9.902563 1 -0.25727916 0.05839237 0.71644612
C 5.983658 6.225150 8.128470 6 0.31407487 0.56533200 -0.55656556
H 5.846199 5.203891 8.497466 1 -0.11442291 0.20535004 0.14719165
H 6.329744 6.280093 7.071866 1 -0.23193013 0.09072453 0.60863763
6
energy=-373.371611 Lattice="12.718 0.0 0.0 0.0 12.718 0.0 0.0 0.0 12.718" Properties=species:S:1:pos:R:3:Z:I:1:force:R:3
C 6.210746 5.658404 6.386140 6 0.21746458 1.13138699 -0.31272864
H 6.173959 4.760563 6.970145 1 -0.16702978 -0.39143274 0.51069910
H 6.481353 5.557503 5.353886 1 0.11621652 -0.35247587 -0.72576329
C 6.036829 6.897919 6.847289 6 -0.09023087 0.20411643 0.08571293
H 6.102513 7.836764 6.294736 1 0.15389812 -0.34717682 -0.65059549
H 5.793956 7.129760 7.859703 1 -0.23189259 -0.24335509 1.09285487
6
energy=-373.340096 Lattice="12.718 0.0 0.0 0.0 12.718 0.0 0.0 0.0 12.718" Properties=species:S:1:pos:R:3:Z:I:1:force:R:3
C 6.394506 6.690553 5.813154 6 0.26925074 2.39207125 -2.21056974
H 6.712631 6.455217 4.744657 1 -0.36119706 -0.26318962 1.49004431
H 6.197492 7.786128 5.940604 1 0.18738573 -0.70331240 -0.13646757
C 6.231327 5.911513 6.852321 6 -0.27212472 -0.87708722 0.57117612
H 5.889417 6.338432 7.799731 1 0.10815713 -0.25887068 -0.01468718
H 6.363592 4.839612 6.754654 1 0.06816205 -0.28190109 0.30762397
6
energy=-373.360667 Lattice="12.718 0.0 0.0 0.0 12.718 0.0 0.0 0.0 12.718" Properties=species:S:1:pos:R:3:Z:I:1:force:R:3
C 5.793147 6.102372 7.925645 6 -0.20847908 -0.26008064 0.28108040
H 5.588263 5.898786 9.011728 1 0.22179894 0.44421855 -0.82990899
H 5.811208 5.126544 7.338091 1 0.15007900 1.47026685 0.30087893
C 5.939406 7.360792 7.430327 6 -0.42732742 -1.47955060 0.52416912
H 6.082796 7.515859 6.370694 1 0.14778506 0.06975305 -0.37261688
H 5.834600 8.265178 8.037425 1 0.11502610 -0.23750634 0.10054203
6
energy=-373.321791 Lattice="12.718 0.0 0.0 0.0 12.718 0.0 0.0 0.0 12.718" Properties=species:S:1:pos:R:3:Z:I:1:force:R:3
C 6.466484 6.161346 5.751520 6 0.09316090 0.31604845 -2.51643971
H 6.752305 5.143802 5.512016 1 0.23244898 -0.11414061 -0.16887943
H 6.341452 6.880375 4.933897 1 0.28057800 -0.21487444 -0.13319044
C 6.149036 6.505205 6.958592 6 -0.99303377 -0.83974089 2.87656924
H 5.702986 7.453160 7.277203 1 0.33142161 -0.05451874 -0.12136695
H 6.162109 5.660536 7.688757 1 0.05429402 0.91616802 0.06680399
6
energy=-373.282542 Lattice="12.718 0.0 0.0 0.0 12.718 0.0 0.0 0.0 12.718" Properties=species:S:1:pos:R:3:Z:I:1:force:R:3
C 5.765157 6.761536 9.697657 6 0.19370191 -0.51991445 -1.26301214
H 5.823094 7.675872 10.246357 1 0.13054888 0.77909932 0.18934286
H 5.418599 5.914248 10.221152 1 -0.52950211 -1.00464951 0.99533851
C 6.088258 6.587737 8.403288 6 -0.02868325 1.13392261 1.52037358
H 5.986190 5.582905 7.995176 1 0.21184517 0.32707438 -0.59399210
H 6.459567 7.512313 7.943003 1 0.02394830 -0.70444369 -0.85825542
6
energy=-373.357686 Lattice="12.718 0.0 0.0 0.0 12.718 0.0 0.0 0.0 12.718" Properties=species:S:1:pos:R:3:Z:I:1:force:R:3
C 5.741218 7.238957 7.902013 6 0.18453900 0.27915670 -0.26865270
H 5.932818 8.299445 7.565780 1 -0.11745373 -1.07042043 0.14685432
H 5.374545 7.194944 8.974743 1 0.37691422 -0.35072032 -1.27779856
C 5.956049 6.166100 7.085740 6 -0.76444968 0.42818103 2.00936998
H 5.727099 5.152361 7.492134 1 0.25509527 0.58551826 -0.45178120
H 6.313717 6.237767 6.065708 1 0.06568710 0.12930704 -0.15981783
6
energy=-373.316193 Lattice="12.718 0.0 0.0 0.0 12.718 0.0 0.0 0.0 12.718" Properties=species:S:1:pos:R:3:Z:I:1:force:R:3
C 5.902723 6.865482 9.840857 6 -0.27898443 -1.94561069 -0.51654734
H 5.711828 7.747328 9.291735 1 -0.04079315 0.89978391 -1.23356527
H 5.899974 7.102147 10.892043 1 0.29671426 -0.48139467 0.65335275
C 5.950265 5.605862 9.317168 6 -0.25453477 0.57837264 1.15432587
H 6.033019 4.754778 10.040430 1 0.06538526 0.51889167 -0.71358860
H 5.820987 5.336486 8.245644 1 0.21163691 0.42556930 0.65811341
6
energy=-373.338228 Lattice="12.718 0.0 0.0 0.0 12.718 0.0 0.0 0.0 12.718" Properties=species:S:1:pos:R:3:Z:I:1:force:R:3
C 6.058345 6.558050 7.694707 6 -0.81163254 0.07996908 1.66260145
H 5.857020 5.486738 7.472761 1 0.45105975 0.74363247 -0.47702842
H 6.413420 7.322024 6.962717 1 -0.20707114 -0.93178028 0.32458658
C 5.735876 6.960203 8.958741 6 0.24643322 -0.19849033 -0.93122184
H 5.849145 8.001119 9.230365 1 0.11326489 0.40955697 0.09966837
H 5.339895 6.342401 9.786386 1 0.20882618 -0.10895469 -0.66875881
6
energy=-373.354788 Lattice="12.718 0.0 0.0 0.0 12.718 0.0 0.0 0.0 12.718" Properties=species:S:1:pos:R:3:Z:I:1:force:R:3
C 6.059592 6.545764 7.058570 6 -0.52705236 0.67946026 0.97217131
H 5.781580 7.619235 7.265797 1 0.32569575 -0.93787483 -0.30047424
H 5.960671 5.889986 7.994921 1 0.33575752 0.62985285 -1.53834252
C 6.403464 6.127518 5.830195 6 -0.25957670 -0.77283560 0.82571808
H 6.611743 5.066974 5.682248 1 0.11742802 -0.08436464 -0.05081789
H 6.433235 6.713416 4.918465 1 0.00748706 0.47717189 0.09166246
6
energy=-373.374991 Lattice="12.718 0.0 0.0 0.0 12.718 0.0 0.0 0.0 12.718" Properties=species:S:1:pos:R:3:Z:I:1:force:R:3
C 6.142604 6.513191 6.930279 6 0.19777094 -0.54314233 -0.22180049
H 5.811443 7.548491 7.053692 1 -0.04597444 -0.06259561 0.01634657
H 6.180798 5.925208 7.893412 1 0.07686010 0.30829657 -1.20853299
C 6.464071 6.080519 5.685672 6 0.24045282 0.16047243 0.64291303
H 6.877365 5.102659 5.406127 1 -0.24814249 -0.05359057 0.53133273
H 6.435485 6.743456 4.814589 1 -0.22312306 0.20016155 0.24299565
6
energy=-373.434305 Lattice="12.718 0.0 0.0 0.0 12.718 0.0 0.0 0.0 12.718" Properties=species:S:1:pos:R:3:Z:I:1:force:R:3
C 6.042626 7.122171 8.398291 6 0.08420163 0.04639559 -0.22007630
H 5.980043 6.805780 7.359145 1 -0.03990355 -0.15255549 -0.03358480
H 6.363960 8.134343 8.578555 1 0.15091204 0.55226358 -0.13889521
C 5.771832 6.358468 9.449801 6 -0.14764211 -0.08568156 -0.05795219
H 5.863827 6.824042 10.433547 1 -0.08824752 -0.44742215 0.15127199
H 5.440472 5.323281 9.328755 1 0.03659042 0.08707253 0.29405317
6
energy=-373.284382 Lattice="12.718 0.0 0.0 0.0 12.718 0.0 0.0 0.0 12.718" Properties=species:S:1:pos:R:3:Z:I:1:force:R:3
C 6.160286 6.774327 6.787578 6 0.27725099 -0.72489117 -3.37167202
H 5.891754 7.746727 6.416919 1 -0.02589206 0.72274687 0.01681400
H 6.076812 6.620974 7.813368 1 0.04144981 -0.56822809 1.82324152
C 6.467352 5.840964 5.849618 6 -0.45661796 -0.16703492 0.47195718
H 6.633412 4.785656 6.061096 1 0.20829087 -0.08318039 0.63537970
H 6.466715 5.941578 4.751161 1 -0.04501336 0.82966473 0.42222995
6
energy=-373.379149 Lattice="12.718 0.0 0.0 0.0 12.718 0.0 0.0 0.0 12.718" Properties=species:S:1:pos:R:3:Z:I:1:force:R:3
C 5.834098 6.047967 7.401296 6 0.45108957 0.66689116 -0.28022679
H 5.686650 6.393484 8.411416 1 -0.31650868 -0.07378351 0.44458725
H 5.955265 5.004438 7.186272 1 -0.16519555 -0.71730693 0.20024588
C 6.061075 6.905591 6.412624 6 0.54000558 0.05015352 -1.03103007
H 6.359432 6.563356 5.414840 1 -0.23720398 -0.28542865 0.06079275
H 6.095632 7.986513 6.443524 1 -0.27136059 0.35207529 0.60340338
6
energy=-373.299187 Lattice="12.718 0.0 0.0 0.0 12.718 0.0 0.0 0.0 12.718" Properties=species:S:1:pos:R:3:Z:I:1:force:R:3
C 6.238617 6.981842 6.367464 6 -0.40700592 -0.59568029 0.45710647
H 6.171714 7.625437 5.438093 1 0.21931577 -0.67260775 1.14658890
H 6.048907 7.441759 7.375707 1 0.30830017 -0.11666286 -1.00107156
C 6.394769 5.637279 6.279464 6 -0.42438402 0.45285644 -1.26371919
H 6.351120 4.843961 7.029542 1 0.10469745 0.64735796 0.58412420
H 6.448259 5.173405 5.280987 1 0.19929818 0.27871807 0.07343333
6