6
energy=-373.374959 Lattice="12.718 0.0 0.0 0.0 12.718 0.0 0.0 0.0 12.718" Properties=species:S:1:pos:R:3:Z:I:1:force:R:3
C 5.894299 7.000844 7.179470 6 -0.02554856 0.52284346 -0.74166918
H 6.019571 7.869891 6.550124 1 -0.03373804 0.82668225 0.38739508
H 5.545641 7.059584 8.191601 1 -0.03127903 0.19236185 0.56970287
C 6.093644 5.871425 6.536640 6 -0.29868013 -1.53037826 0.21387737
H 5.930448 4.899240 7.002617 1 0.09361239 -0.09850726 0.09572121
H 6.336821 5.837122 5.490343 1 0.29725522 0.08020305 -0.52511374
6
energy=-373.351933 Lattice="12.718 0.0 0.0 0.0 12.718 0.0 0.0 0.0 12.718" Properties=species:S:1:pos:R:3:Z:I:1:force:R:3
C 6.021895 6.600865 7.235244 6 0.59060699 0.26829943 -1.77858657
H 6.004102 5.653090 6.707754 1 -0.21762707 -0.41822828 0.35527683
H 6.383645 7.402260 6.612193 1 0.12969168 0.45773434 -0.45511952
C 5.706813 6.873980 8.474652 6 -0.03082344 -0.95650145 0.72966572
H 5.845025 7.868688 8.844984 1 -0.14256983 0.52682918 0.53431676
H 5.434473 6.041088 9.109470 1 -0.33257192 0.12351331 0.60980594
6
energy=-373.419305 Lattice="12.718 0.0 0.0 0.0 12.718 0.0 0.0 0.0 12.718" Properties=species:S:1:pos:R:3:Z:I:1:force:R:3
C 5.957452 7.409213 8.211865 6 -0.11595889 -0.77054680 -0.34609027
H 6.043252 7.646056 7.142721 1 0.04792334 -0.05958484 0.22777625
H 5.943688 8.254457 8.896327 1 0.01228474 0.03267566 0.10222611
C 5.837443 6.143785 8.647001 6 -0.07901057 -0.23500362 -0.15830551
H 5.711981 5.895519 9.693331 1 0.03574144 0.28155914 0.48937178
H 5.819859 5.210806 8.052177 1 0.09884767 0.74401402 -0.31051029
6
energy=-373.388050 Lattice="12.718 0.0 0.0 0.0 12.718 0.0 0.0 0.0 12.718" Properties=species:S:1:pos:R:3:Z:I:1:force:R:3
C 5.950766 5.865077 7.232496 6 0.12180250 -0.52486435 0.38909252
H 5.682459 6.139037 8.262779 1 -0.03303664 -0.35519044 -0.27266723
H 6.140837 4.832952 6.955749 1 -0.15469465 -0.33483860 0.29536546
C 6.134855 6.808300 6.333856 6 0.30642841 1.67484248 -0.20816335
H 6.493566 6.730689 5.316172 1 -0.03916770 -0.65136734 -0.30653279
H 6.032668 7.853301 6.624983 1 -0.20335127 0.17926464 0.10141004
6
energy=-373.429485 Lattice="12.718 0.0 0.0 0.0 12.718 0.0 0.0 0.0 12.718" Properties=species:S:1:pos:R:3:Z:I:1:force:R:3
C 5.986254 7.129972 6.661853 6 0.03965518 -0.33457378 -0.62714907
H 6.224167 6.953786 5.601849 1 0.00406749 0.54169686 0.20343663
H 5.858429 8.143786 7.043132 1 0.06003016 -0.02915942 -0.09401965
C 5.827052 6.041493 7.404532 6 -0.04971489 -0.38303602 0.08610888
H 5.563918 6.048700 8.444194 1 -0.14201704 0.27162387 0.71247634
H 5.935755 5.035846 7.006857 1 0.08931762 -0.07617721 -0.28348901
6
energy=-373.398261 Lattice="12.718 0.0 0.0 0.0 12.718 0.0 0.0 0.0 12.718" Properties=species:S:1:pos:R:3:Z:I:1:force:R:3
C 6.002839 6.483498 6.686028 6 -0.35923016 0.80814510 0.57615635
H 5.929264 5.469761 6.288622 1 0.05867930 0.01349984 0.22252348
H 6.276597 7.282272 5.995838 1 0.19458843 -0.18463825 -0.26012229
C 5.676072 6.867813 7.933041 6 -0.19836384 -1.38433744 -0.45840591
H 5.687982 7.871837 8.274581 1 0.24714387 1.21973633 -0.02101878
H 5.307949 6.201768 8.709445 1 0.05845510 -0.47378112 -0.05229062
6
energy=-373.380957 Lattice="12.718 0.0 0.0 0.0 12.718 0.0 0.0 0.0 12.718" Properties=species:S:1:pos:R:3:Z:I:1:force:R:3
C 6.116464 6.541537 8.909982 6 -0.72871903 0.18613258 1.95316871
H 6.013976 5.989374 7.989309 1 0.17885943 -0.26969812 -0.29074570
H 6.372563 7.599591 8.865967 1 0.23111354 0.02366856 -0.30419463
C 5.754761 6.036080 10.125136 6 0.32812905 0.42554410 -2.18969546
H 5.749441 6.682616 10.998838 1 0.03398127 -0.26692646 0.23783030
H 5.405748 5.006567 10.130428 1 -0.04527510 -0.10941492 0.58536810
6
energy=-373.382439 Lattice="12.718 0.0 0.0 0.0 12.718 0.0 0.0 0.0 12.718" Properties=species:S:1:pos:R:3:Z:I:1:force:R:3
C 5.876509 5.987043 9.314924 6 0.12623354 1.48845022 -0.29451956
H 5.889316 5.593394 10.315609 1 0.14848286 0.30518194 0.73609811
H 5.711396 5.211332 8.598837 1 -0.09021853 -0.45304670 -0.81642097
C 6.012144 7.280453 8.926402 6 -0.26422578 -0.49586588 0.93154991
H 5.917916 7.516942 7.866321 1 0.11972762 0.11682844 -0.02713236
H 6.139658 8.153894 9.623633 1 -0.03988247 -0.95111910 -0.53270776
6
energy=-373.422577 Lattice="12.718 0.0 0.0 0.0 12.718 0.0 0.0 0.0 12.718" Properties=species:S:1:pos:R:3:Z:I:1:force:R:3
C 5.911413 7.259964 6.983017 6 -0.30560000 -1.09881212 0.04655037
H 6.111836 7.717881 6.040947 1 0.33964194 0.32667689 -0.83604776
H 5.607100 7.946364 7.759116 1 0.03265972 0.07564345 0.47427271
C 5.901380 5.923712 7.134076 6 -0.40469398 0.99936023 0.72328886
H 5.607038 5.500167 8.090942 1 0.04154751 -0.11350709 0.20233208
H 6.094131 5.201925 6.364394 1 0.29798696 -0.17974029 -0.61817797
6
energy=-373.449117 Lattice="12.718 0.0 0.0 0.0 12.718 0.0 0.0 0.0 12.718" Properties=species:S:1:pos:R:3:Z:I:1:force:R:3
C 6.065965 6.894350 8.267920 6 -0.00063609 0.88351704 0.86205191
H 5.949621 6.213791 7.450895 1 -0.05559038 -0.58201435 -0.44157031
H 6.428710 7.891515 8.030105 1 0.11435812 0.11000473 -0.20369271
C 5.743339 6.615020 9.533499 6 -0.15645842 -0.37193502 0.29001293
H 5.831682 7.331072 10.371840 1 0.05373712 -0.20705571 -0.50782872
H 5.360435 5.622524 9.805530 1 0.04602072 0.16389972 -0.00140639
6
energy=-373.351534 Lattice="12.718 0.0 0.0 0.0 12.718 0.0 0.0 0.0 12.718" Properties=species:S:1:pos:R:3:Z:I:1:force:R:3
C 6.034045 6.880203 7.271939 6 0.22356992 -0.82502183 -3.07066402
H 6.025188 6.139000 6.397375 1 -0.04304647 0.64607292 1.35633605
H 6.294590 7.880763 6.895593 1 -0.01198341 -0.09082377 0.54022927
C 5.717057 6.589272 8.512244 6 -0.38999292 0.04327941 1.34637405
H 5.741377 7.422284 9.222311 1 -0.06893750 -0.24349444 0.24961624
H 5.392837 5.604803 8.906316 1 0.28788508 0.46939018 -0.41789609
6
energy=-373.353074 Lattice="12.718 0.0 0.0 0.0 12.718 0.0 0.0 0.0 12.718" Properties=species:S:1:pos:R:3:Z:I:1:force:R:3
C 6.235573 5.695274 6.335377 6 -0.38972501 0.21741007 0.43458411
H 6.126682 4.756683 6.864728 1 0.10045204 -0.23328921 0.25295919
H 6.409128 5.611350 5.276256 1 0.28505224 -0.00430197 -0.49211104
C 6.029131 6.886536 6.918170 6 0.13707332 -1.08621884 -1.73850510
H 6.063233 7.725147 6.218911 1 -0.04293231 0.47639542 0.70645121
H 5.724246 6.906392 7.938350 1 -0.08996091 0.61771672 0.84535978
6
energy=-373.335611 Lattice="12.718 0.0 0.0 0.0 12.718 0.0 0.0 0.0 12.718" Properties=species:S:1:pos:R:3:Z:I:1:force:R:3
C 5.886463 6.474385 7.400058 6 0.49626903 -1.60565559 -0.61724055
H 5.743438 7.438388 7.855003 1 -0.11676519 0.56412923 -0.16498009
H 5.822932 5.610141 8.071117 1 -0.16484383 0.21169862 0.15383024
C 6.226095 6.197424 6.129567 6 0.36918548 -0.00377181 -0.25228608
H 6.465003 5.209731 5.692744 1 -0.39262470 -0.01676618 0.85832844
H 6.411496 6.918110 5.345850 1 -0.19249555 0.84382175 0.01070351
6
energy=-373.378874 Lattice="12.718 0.0 0.0 0.0 12.718 0.0 0.0 0.0 12.718" Properties=species:S:1:pos:R:3:Z:I:1:force:R:3
C 6.447763 5.851929 5.915524 6 0.78270915 -1.95051224 -0.94021813
H 6.716359 4.870899 6.336356 1 -0.07583526 0.02401052 -0.36952744
H 6.509631 5.930771 4.811941 1 -0.19183426 0.19570737 0.60723638
C 6.165638 6.801350 6.769923 6 -0.34382102 1.59760031 -0.59496810
H 5.934060 7.799628 6.369072 1 -0.04305007 -0.07499502 0.58034674
H 6.192677 6.594496 7.819430 1 -0.12704344 0.20135300 0.73130608
6
energy=-373.378851 Lattice="12.718 0.0 0.0 0.0 12.718 0.0 0.0 0.0 12.718" Properties=species:S:1:pos:R:3:Z:I:1:force:R:3
C 6.299928 5.667510 6.560196 6 0.32943723 1.77871152 -1.38232221
H 6.180229 5.366069 7.567914 1 -0.36657478 0.09209698 1.25971804
H 6.538042 4.837777 5.912550 1 -0.00463570 -0.23308918 -0.50657762
C 6.287895 6.949489 6.086310 6 0.38125322 -1.67968696 0.71681482
H 6.548047 7.110199 5.036264 1 -0.22118548 0.20243390 0.08928625
H 6.153231 7.818200 6.740571 1 -0.12103477 -0.15332013 -0.17403964
6
energy=-373.389829 Lattice="12.718 0.0 0.0 0.0 12.718 0.0 0.0 0.0 12.718" Properties=species:S:1:pos:R:3:Z:I:1:force:R:3
C 6.374590 6.662858 5.877832 6 -0.07938441 -0.45898389 -0.28925548
H 6.687458 6.128006 5.006920 1 0.37961748 -0.27810974 -0.69769660
H 6.182472 7.699201 5.784038 1 -0.07960501 1.21307665 -0.22477577
C 6.125947 6.037050 7.011295 6 -0.07391927 -0.00433643 0.22371185
H 5.749194 6.646771 7.823152 1 -0.06475122 -0.33724156 0.58439725
H 6.282420 4.966024 7.084678 1 -0.08353777 -0.13640792 0.40448984
6
energy=-373.407855 Lattice="12.718 0.0 0.0 0.0 12.718 0.0 0.0 0.0 12.718" Properties=species:S:1:pos:R:3:Z:I:1:force:R:3
C 6.012036 7.290300 8.568701 6 -0.01504045 -0.84252231 -0.14205458
H 5.962731 7.141014 7.484523 1 -0.02587920 0.34049503 0.03121733
H 6.291854 8.294966 8.918631 1 -0.21223546 -0.40479066 0.14447707
C 5.797315 6.193787 9.322411 6 0.40273326 0.04600324 -0.66573108
H 5.904499 6.170801 10.393541 1 -0.07738049 0.20909820 0.56533920
H 5.621802 5.195024 8.870562 1 -0.07165927 0.65120228 0.06503147
6
energy=-373.350527 Lattice="12.718 0.0 0.0 0.0 12.718 0.0 0.0 0.0 12.718" Properties=species:S:1:pos:R:3:Z:I:1:force:R:3
C 5.773319 6.943919 9.623801 6 -0.30107280 0.07797544 1.59210021
H 5.903412 8.015649 9.820073 1 -0.13818661 -0.21785076 -0.09670029
H 5.467130 6.327048 10.470630 1 -0.15403490 0.07141244 0.09068236
C 6.053449 6.410996 8.460360 6 1.42350720 1.61746930 -1.96455716
H 6.095408 5.387834 8.158660 1 -0.34930827 -0.85975077 0.14312519
H 6.476947 7.124565 7.704187 1 -0.48190170 -0.68306804 0.24025382
6
energy=-373.315271 Lattice="12.718 0.0 0.0 0.0 12.718 0.0 0.0 0.0 12.718" Properties=species:S:1:pos:R:3:Z:I:1:force:R:3
C 5.811362 6.695082 10.064745 6 0.44639371 0.20413237 1.16419840
H 5.745313 7.806299 9.895215 1 -0.05361628 -1.11883537 -0.53772141
H 5.823696 6.535051 11.194673 1 -0.13210903 -0.38787844 -1.40768102
C 6.006113 5.728278 9.132706 6 -0.09743408 1.98021313 0.54304052
H 6.164253 4.691296 9.361525 1 -0.04769194 -0.51669697 0.26810352
H 6.086362 6.027118 8.084418 1 -0.11496439 -0.15755526 -0.01907811
6
energy=-373.276531 Lattice="12.718 0.0 0.0 0.0 12.718 0.0 0.0 0.0 12.718" Properties=species:S:1:pos:R:3:Z:I:1:force:R:3
C 6.175044 6.455595 6.152223 6 -0.51169463 1.51956162 2.61149963
H 6.457429 5.646980 5.504332 1 -0.05678954 -0.47620361 -0.24850193
H 6.248082 7.499301 5.775058 1 -0.07502382 -0.71224802 -0.10616144
C 5.840882 6.315366 7.477915 6 0.74772670 -0.18842909 -0.49671640
H 5.684394 7.103678 8.250304 1 -0.04185708 0.14198876 -1.14865916
H 5.842608 5.363800 8.025117 1 -0.06118510 -0.28915675 -0.61354330
6
energy=-373.345277 Lattice="12.718 0.0 0.0 0.0 12.718 0.0 0.0 0.0 12.718" Properties=species:S:1:pos:R:3:Z:I:1:force:R:3
C 6.480811 5.849654 5.878258 6 -0.82301534 0.92814114 -0.07348527
H 6.680641 4.777302 6.117947 1 0.03039920 0.92098472 -0.20056624
H 6.370218 6.185482 4.814640 1 0.38945659 -0.69046459 0.67831303
C 6.163408 6.786572 6.803747 6 -0.17958397 -0.28548419 -0.52878991
H 5.826783 7.816691 6.583541 1 0.35840689 -0.44865268 -0.41563506
H 6.108109 6.598007 7.863036 1 0.22552859 -0.42544229 0.52744368
6
energy=-373.372154 Lattice="12.718 0.0 0.0 0.0 12.718 0.0 0.0 0.0 12.718" Properties=species:S:1:pos:R:3:Z:I:1:force:R:3
C 5.881639 6.001006 7.137616 6 0.31539179 1.01013213 -0.08735946
H 5.753197 5.306353 7.907067 1 -0.46205688 -1.27314229 1.27743501
H 6.223495 5.613829 6.199869 1 0.05912667 -0.21083678 -0.70934781
C 5.800452 7.309705 7.359112 6 0.37592795 0.30940986 -0.36230160
H 6.087355 7.947956 6.525045 1 -0.19915831 0.43586452 0.05260738
H 5.570773 7.794575 8.315125 1 -0.09134108 -0.27056098 -0.17139963
6
energy=-373.374204 Lattice="12.718 0.0 0.0 0.0 12.718 0.0 0.0 0.0 12.718" Properties=species:S:1:pos:R:3:Z:I:1:force:R:3
C 5.822966 5.833734 9.702957 6 0.11603860 -1.60993493 -0.11325563
H 5.973819 5.809654 10.798300 1 -0.31159736 -0.31450425 -0.50654625
H 5.622652 4.903448 9.115180 1 -0.06604449 0.49392110 0.82377587
C 6.057084 6.953412 9.054276 6 0.33000493 0.89370581 -0.14521447
H 6.042183 7.105987 7.980838 1 -0.16523412 -0.22066971 -0.21582884
H 6.353742 7.801698 9.642367 1 0.09668486 0.76243085 0.16105659
6
energy=-373.354027 Lattice="12.718 0.0 0.0 0.0 12.718 0.0 0.0 0.0 12.718" Properties=species:S:1:pos:R:3:Z:I:1:force:R:3
C 6.328471 6.901954 6.015970 6 -0.45488041 -0.94767691 2.01929187
H 6.464803 7.059384 4.992125 1 0.36114872 -0.07376243 -1.78186730
H 6.146746 7.806003 6.575023 1 -0.03361051 0.39879535 0.35321686
C 6.294213 5.697032 6.631286 6 0.00483882 1.80637918 -0.40383575
H 6.101741 5.691924 7.717414 1 0.13920991 -0.53547992 -0.47442235
H 6.464521 4.828604 6.013789 1 -0.01765629 -0.65984736 0.28350135
6
energy=-373.298601 Lattice="12.718 0.0 0.0 0.0 12.718 0.0 0.0 0.0 12.718" Properties=species:S:1:pos:R:3:Z:I:1:force:R:3
C 6.037307 6.502079 7.070558 6 0.70763289 -0.85932603 1.08982148
H 5.856071 7.581578 7.369414 1 -0.00400938 -1.40073338 -0.28971828
H 6.120693 5.679871 7.868190 1 -0.46477917 1.41071029 -0.77676270
C 6.392116 6.158279 5.824897 6 0.10890789 0.75568273 0.08756875
H 6.731678 5.183794 5.462373 1 -0.27167118 -0.05773365 0.39353025
H 6.452380 6.956632 5.097114 1 -0.07696809 0.15811524 -0.50279707
6
energy=-373.401721 Lattice="12.718 0.0 0.0 0.0 12.718 0.0 0.0 0.0 12.718" Properties=species:S:1:pos:R:3:Z:I:1:force:R:3
C 5.995442 6.869073 6.724691 6 -0.43976488 -0.40976832 1.10821567
H 6.039034 6.153787 5.924701 1 0.07182485 -0.63506962 -0.33576420
H 6.157367 7.873957 6.378132 1 0.16036239 0.68029587 0.25176517
C 5.681579 6.497491 7.989268 6 0.01582207 1.23962125 -1.17095784
H 5.549947 7.253428 8.788351 1 0.16094552 -0.54003952 -0.27655320
H 5.437093 5.461480 8.167198 1 0.03220000 -0.33084156 0.41008148
6
energy=-373.401426 Lattice="12.718 0.0 0.0 0.0 12.718 0.0 0.0 0.0 12.718" Properties=species:S:1:pos:R:3:Z:I:1:force:R:3
C 6.005798 6.758899 6.689529 6 -0.39234805 -0.16772603 0.29695389
H 6.002983 5.886507 6.032562 1 0.12078948 0.03635594 -0.06484738
H 6.202400 7.728812 6.206220 1 0.05053147 -0.26436564 0.36559313
C 5.671449 6.605757 7.979728 6 -0.35397122 0.59774335 0.81799860
H 5.579711 7.438005 8.718020 1 0.26183979 -0.20198652 -0.76514954
H 5.374669 5.664573 8.475618 1 0.31740600 0.01111797 -0.65285858
6
energy=-373.383460 Lattice="12.718 0.0 0.0 0.0 12.718 0.0 0.0 0.0 12.718" Properties=species:S:1:pos:R:3:Z:I:1:force:R:3
C 6.016861 6.345653 8.319152 6 0.12902371 0.53798007 0.35621323
H 5.897115 5.291326 8.395596 1 -0.15036645 -0.91006935 -0.02476437
H 6.418145 6.783770 7.440538 1 0.34086733 0.02813972 -1.21656770
C 5.776016 7.178626 9.312920 6 -0.25494512 1.26149981 1.29106958
H 5.936545 8.274253 9.249186 1 0.01652758 -0.53301064 -0.30387376
H 5.417405 6.901830 10.307419 1 -0.08103454 -0.37067415 -0.10313216
6
energy=-373.332359 Lattice="12.718 0.0 0.0 0.0 12.718 0.0 0.0 0.0 12.718" Properties=species:S:1:pos:R:3:Z:I:1:force:R:3
C 5.936012 6.101244 8.630973 6 -0.43524797 1.41253269 -0.71095013
H 5.747382 5.413560 9.477112 1 0.30175722 -0.02858812 -0.78464777
H 6.015622 5.834526 7.550318 1 0.10558500 -0.60822574 0.97163909
C 5.876464 7.430610 8.867799 6 -0.25633505 -0.64156269 0.83839569
H 5.939585 8.234867 8.132889 1 0.13449605 -0.27001230 -0.19382532
H 5.681301 7.758756 9.896381 1 0.14946553 0.14243048 -0.11079766
6
energy=-373.395654 Lattice="12.718 0.0 0.0 0.0 12.718 0.0 0.0 0.0 12.718" Properties=species:S:1:pos:R:3:Z:I:1:force:R:3
C 6.097235 6.507940 8.919538 6 0.67555630 -0.21241852 -2.22307971
H 6.094836 5.782368 8.107402 1 -0.08147780 -0.02605866 -0.28246211
H 6.482513 7.479157 8.620760 1 -0.12949319 0.29484301 0.38191811
C 5.751791 6.093587 10.102957 6 -0.27905385 -0.01866057 2.10303019
H 5.797756 6.753386 10.969636 1 -0.09233661 0.04745231 0.12201127
H 5.449422 5.069199 10.312198 1 -0.08919472 -0.07392904 -0.11709789
6
energy=-373.341173 Lattice="12.718 0.0 0.0 0.0 12.718 0.0 0.0 0.0 12.718" Properties=species:S:1:pos:R:3:Z:I:1:force:R:3
C 6.144615 6.954735 6.674343 6 -0.58700435 1.99627277 -0.29055646
H 6.130199 7.767896 5.874748 1 0.05665893 -0.52616533 1.48171958
H 5.888825 7.147064 7.747199 1 0.31599343 0.16579256 -0.96286237
C 6.339355 5.739415 6.223931 6 -0.11735912 -1.46152715 -0.16032279
H 6.256785 4.867343 6.864086 1 0.16054957 -0.20753291 0.22008864
H 6.488880 5.521659 5.173710 1 0.17137495 0.03887048 -0.28637687
6
energy=-373.385223 Lattice="12.718 0.0 0.0 0.0 12.718 0.0 0.0 0.0 12.718" Properties=species:S:1:pos:R:3:Z:I:1:force:R:3
C 6.072402 6.617999 7.020925 6 -0.80786176 -0.06646204 1.42668560
H 5.772423 7.682187 7.087211 1 0.31246948 -0.50035606 0.18972030
H 5.953454 5.953112 7.926482 1 0.18995118 0.96024138 -0.69827612
C 6.400127 6.058409 5.869301 6 -0.19338052 0.26145412 -0.23833835
H 6.557016 4.993534 5.854970 1 0.30145229 -0.44143096 -0.43577144
H 6.417707 6.659258 4.962801 1 0.19887600 -0.21686294 -0.24291080
6
energy=-373.330754 Lattice="12.718 0.0 0.0 0.0 12.718 0.0 0.0 0.0 12.718" Properties=species:S:1:pos:R:3:Z:I:1:force:R:3
C 5.741190 6.339793 7.742121 6 -0.22500974 -0.55241579 0.12767233
H 5.548088 6.880883 8.613312 1 -0.22842365 0.81030997 1.66974552
H 5.622120 5.283057 7.754736 1 -0.01570225 -1.00376453 0.30246376
C 6.011401 6.930474 6.612163 6 0.06421746 -0.30507858 -1.85379293
H 6.096345 6.266814 5.739779 1 0.21595071 0.55098574 -0.13120297
H 6.046679 7.996542 6.482619 1 0.19125987 0.51397263 -0.12175365
6
energy=-373.380675 Lattice="12.718 0.0 0.0 0.0 12.718 0.0 0.0 0.0 12.718" Properties=species:S:1:pos:R:3:Z:I:1:force:R:3
C 6.138460 6.887602 6.802390 6 0.52288202 -1.22862566 -1.26484945
H 6.039941 7.875634 6.380837 1 -0.14787093 0.42189211 -0.19659697
H 6.056495 6.828576 7.884963 1 -0.03788986 -0.26235195 0.05725902
C 6.421998 5.825079 5.998434 6 0.13447959 -0.30976467 1.74742117
H 6.605258 4.805248 6.420126 1 -0.29636459 0.74652702 -0.00137246
H 6.583665 5.811485 4.928678 1 -0.17531079 0.63205474 -0.34147925
6
energy=-373.337916 Lattice="12.718 0.0 0.0 0.0 12.718 0.0 0.0 0.0 12.718" Properties=species:S:1:pos:R:3:Z:I:1:force:R:3
C 6.160587 6.902881 6.731818 6 -0.14636529 -0.24149155 0.62618902
H 6.003469 7.837357 6.253253 1 0.02407583 0.92553764 -0.58559847
H 6.006885 6.896776 7.782662 1 -0.05310977 0.04846276 1.15294982
C 6.430899 5.796540 6.068301 6 -0.38066032 -0.67982844 -0.19028954
H 6.459536 4.792803 6.546245 1 0.22330715 0.64714764 -0.46752511
H 6.451480 5.938174 4.997858 1 0.33289073 -0.70757272 -0.53673000
6
energy=-373.436140 Lattice="12.718 0.0 0.0 0.0 12.718 0.0 0.0 0.0 12.718" Properties=species:S:1:pos:R:3:Z:I:1:force:R:3
C 6.386632 6.551560 5.814641 6 -0.17927750 0.77717768 0.70878011
H 6.774102 5.871668 5.056419 1 -0.06682148 0.02391436 -0.01654403
H 6.257641 7.615153 5.563880 1 0.10523019 -0.31494391 -0.23843811
C 6.110061 6.155230 7.065173 6 0.06929077 -0.14529880 -0.77240828
H 5.730287 6.779142 7.865260 1 -0.03969118 0.37271252 -0.02088766
H 6.224010 5.117146 7.306172 1 0.11065779 -0.71449620 0.33686566
6
energy=-373.398588 Lattice="12.718 0.0 0.0 0.0 12.718 0.0 0.0 0.0 12.718" Properties=species:S:1:pos:R:3:Z:I:1:force:R:3
C 5.805717 6.104415 7.884884 6 -0.30511303 -1.85963500 0.62720564
H 5.578105 5.932819 8.965158 1 0.25802273 -0.26546916 -0.79966456
H 5.873072 5.215542 7.194558 1 -0.03751859 0.85934197 0.75349009
C 5.929708 7.348596 7.483055 6 -0.31134076 1.37242397 -0.12622531
H 6.055648 7.623595 6.438342 1 0.20037341 0.07034286 -0.08484544
H 5.786007 8.166577 8.210477 1 0.19535821 -0.16997267 -0.37528311
6
energy=-373.374238 Lattice="12.718 0.0 0.0 0.0 12.718 0.0 0.0 0.0 12.718" Properties=species:S:1:pos:R:3:Z:I:1:force:R:3
C 5.824584 7.212977 7.317853 6 -0.30519582 1.74463255 0.21267975
H 6.006360 8.068194 6.639583 1 -0.07850149 -0.06068219 0.63919264
H 5.464583 7.374638 8.364180 1 0.34608153 0.11642066 -0.87912971
C 5.966709 6.000372 6.845226 6 -0.01636663 -2.42883136 0.03098336
H 5.726528 5.165846 7.540462 1 0.24243720 0.18127010 -0.56768919
H 6.294541 5.699924 5.827235 1 -0.18758114 0.45126852 0.56325609
6
energy=-373.396518 Lattice="12.718 0.0 0.0 0.0 12.718 0.0 0.0 0.0 12.718" Properties=species:S:1:pos:R:3:Z:I:1:force:R:3
C 5.833723 7.233806 7.218372 6 0.06087297 2.03153445 1.10070753
H 6.123696 7.995108 6.469350 1 -0.32289685 -0.19648179 0.38052354
H 5.558738 7.609076 8.246852 1 0.16499604 -0.33876982 -1.06584592
C 5.942468 5.958413 6.932859 6 0.22700697 -1.18497653 -0.23620433
H 5.751895 5.181593 7.690290 1 0.01850116 0.08592890 -0.46897778
H 6.285035 5.699441 5.922476 1 -0.14771358 -0.41429706 0.29182967
6
energy=-373.365260 Lattice="12.718 0.0 0.0 0.0 12.718 0.0 0.0 0.0 12.718" Properties=species:S:1:pos:R:3:Z:I:1:force:R:3
C 5.773822 6.466203 10.225457 6 -0.00500388 -0.40529408 -0.99324614
H 5.634979 7.519196 10.425531 1 0.20909563 0.52404828 -0.47590279
H 5.558906 5.909515 11.101378 1 -0.04578727 -1.06622336 0.84042583
C 6.063021 5.929813 9.023184 6 -0.29728916 1.30031578 0.31618318
H 6.136588 4.884606 8.745546 1 0.01622059 -0.28827692 0.42165762
H 6.185947 6.625545 8.189585 1 0.12259389 -0.06826027 -0.10798847
6
energy=-373.410846 Lattice="12.718 0.0 0.0 0.0 12.718 0.0 0.0 0.0 12.718" Properties=species:S:1:pos:R:3:Z:I:1:force:R:3
C 5.969944 7.175294 6.754793 6 -0.24194047 1.10582969 -0.76122551
H 6.199766 7.258961 5.656974 1 -0.10356051 -0.00454263 1.05786881
H 5.740916 8.108141 7.296822 1 0.26534935 -0.20431337 -0.24210759
C 5.847334 5.995360 7.339323 6 -0.00511393 -1.23377404 -0.57380224
H 5.552792 5.826706 8.379010 1 0.10842967 0.13611481 -0.10999239
H 5.997571 5.105240 6.692586 1 -0.02318982 0.21171250 0.63433737
6
energy=-373.351631 Lattice="12.718 0.0 0.0 0.0 12.718 0.0 0.0 0.0 12.718" Properties=species:S:1:pos:R:3:Z:I:1:force:R:3
C 6.155804 6.810772 6.703066 6 0.22311329 0.56153962 -0.57397502
H 6.010392 7.847406 6.391047 1 -0.14432281 -0.16178473 -0.17427155
H 6.185822 6.623842 7.737458 1 -0.21523903 0.03195061 1.61261351
C 6.444045 5.788516 5.910208 6 0.11990605 0.70439227 -0.59253994
H 6.674919 4.851434 6.395024 1 0.03142970 -0.56285756 -0.38824508
H 6.528460 5.970061 4.831805 1 -0.01427375 -0.58611629 0.12018168
6
energy=-373.342841 Lattice="12.718 0.0 0.0 0.0 12.718 0.0 0.0 0.0 12.718" Properties=species:S:1:pos:R:3:Z:I:1:force:R:3
C 6.136495 6.677399 8.551885 6 -0.27475651 -1.09475903 1.09732087
H 6.055724 5.788520 7.883968 1 0.01398887 0.74519776 0.11967465
H 6.578188 7.598705 8.100928 1 -0.45446286 -0.57046752 0.66972760
C 5.770269 6.453642 9.855525 6 0.68436696 0.56953781 -1.11356563
H 5.880425 7.188648 10.661396 1 -0.04442458 0.17789424 -0.30100903
H 5.401885 5.484231 10.225761 1 0.07314074 0.17297520 -0.47628332
6
energy=-373.315463 Lattice="12.718 0.0 0.0 0.0 12.718 0.0 0.0 0.0 12.718" Properties=species:S:1:pos:R:3:Z:I:1:force:R:3
C 6.286131 6.945061 6.146158 6 0.03585766 -0.85571465 0.68439010
H 6.416100 7.136764 5.128785 1 0.17320095 0.85239278 -1.79519539
H 6.130986 7.773906 6.817789 1 -0.02931522 0.21513310 0.32704353
C 6.336476 5.658629 6.501374 6 -0.42977357 0.97501341 0.72528661
H 6.172957 5.471073 7.571508 1 0.17306519 -0.78637915 -0.36820280
H 6.450733 4.916389 5.713201 1 0.07723754 -0.38959440 0.43080407
6
energy=-373.313571 Lattice="12.718 0.0 0.0 0.0 12.718 0.0 0.0 0.0 12.718" Properties=species:S:1:pos:R:3:Z:I:1:force:R:3
C 6.016645 7.133372 7.410184 6 -0.14345120 0.69889987 -0.76373029
H 6.042273 6.837934 6.345888 1 0.08324570 -0.07128851 0.54532160
H 6.108232 8.195978 7.628363 1 0.25672895 0.18673524 -0.24274934
C 5.753288 6.344852 8.428890 6 -0.89007130 -1.57163524 1.56073427
H 5.620632 6.649225 9.474947 1 0.34215648 0.75797358 -0.23992729
H 5.493894 5.276909 8.437224 1 0.35241519 -0.00016147 -0.86858972
6
energy=-373.374067 Lattice="12.718 0.0 0.0 0.0 12.718 0.0 0.0 0.0 12.718" Properties=species:S:1:pos:R:3:Z:I:1:force:R:3
C 6.485371 6.036327 5.757670 6 -0.54908313 0.16291755 -0.10388704
H 6.762078 4.974015 5.774408 1 0.16864752 0.27915104 -0.57592855
H 6.321140 6.630577 4.816059 1 0.46555821 -0.89340705 0.70300233
C 6.155397 6.600096 6.924097 6 -0.29343044 0.30736943 -0.29279435
H 5.772011 7.626961 6.884370 1 0.11682176 -0.10205024 0.47027824
H 6.173074 6.057734 7.878408 1 0.09190980 0.24515640 -0.19158178
6
energy=-373.364976 Lattice="12.718 0.0 0.0 0.0 12.718 0.0 0.0 0.0 12.718" Properties=species:S:1:pos:R:3:Z:I:1:force:R:3
C 5.931906 7.194832 6.981172 6 0.57693488 1.67090098 -0.81178372
H 6.150638 7.074650 5.883180 1 -0.36143771 -0.18148247 1.04548637
H 6.002022 8.261544 7.314171 1 -0.22828019 -0.78261402 -0.11166103
C 5.724069 6.193498 7.819878 6 0.44028219 -1.94445009 -0.59474081
H 5.619465 6.222104 8.898083 1 -0.17285899 0.50080652 0.18113075
H 5.790353 5.146753 7.421832 1 -0.25432188 0.74036768 0.27996042
6
energy=-373.335495 Lattice="12.718 0.0 0.0 0.0 12.718 0.0 0.0 0.0 12.718" Properties=species:S:1:pos:R:3:Z:I:1:force:R:3
C 5.729663 6.985357 8.718014 6 -0.06509061 -0.90115328 1.15492134
H 5.910749 8.051347 9.001161 1 -0.24968926 -0.77756283 -0.35529997
H 5.389209 6.301008 9.577264 1 0.34268459 0.98227112 -1.26937922
C 6.020409 6.503270 7.499224 6 0.33822732 0.98093981 0.39103113
H 5.995386 5.494752 7.130780 1 -0.39965976 -0.74661495 0.36288833
H 6.435740 7.168265 6.754749 1 0.03415096 0.46413742 -0.28190007
6
energy=-373.377787 Lattice="12.718 0.0 0.0 0.0 12.718 0.0 0.0 0.0 12.718" Properties=species:S:1:pos:R:3:Z:I:1:force:R:3
C 5.912930 6.130159 8.656064 6 -0.16205932 -2.69625456 0.33079837
H 5.773689 5.479718 9.533758 1 0.13472282 0.13470225 -0.06950931
H 6.012158 5.514406 7.740751 1 0.03082241 0.85181583 0.07759646
C 5.892274 7.426059 8.822509 6 -0.25734036 1.46155904 -0.11579948
H 5.942222 8.102854 7.968833 1 0.14293544 0.20522971 0.10278147
H 5.738112 7.850027 9.824904 1 0.11223593 0.03805595 -0.32988151
6
energy=-373.330273 Lattice="12.718 0.0 0.0 0.0 12.718 0.0 0.0 0.0 12.718" Properties=species:S:1:pos:R:3:Z:I:1:force:R:3
C 6.127318 6.507846 8.542427 6 -0.64781253 -1.66869291 1.49149184
H 6.067143 5.501320 8.143502 1 -0.05352321 -0.15137381 -0.49952713
H 6.520864 7.259845 7.918265 1 0.38613832 1.12186567 -0.60674684
C 5.774936 6.637230 9.826422 6 0.40360384 0.69677203 0.81618443
H 5.899495 7.558840 10.402216 1 -0.04679874 0.38384849 -0.41619454
H 5.448567 5.863511 10.535053 1 -0.04447189 -0.38381610 -0.77364755
6
energy=-373.433470 Lattice="12.718 0.0 0.0 0.0 12.718 0.0 0.0 0.0 12.718" Properties=species:S:1:pos:R:3:Z:I:1:force:R:3
C 6.045838 7.107293 8.369727 6 0.13358845 -0.18009665 0.32024861
H 6.013090 6.704135 7.342978 1 -0.19862352 -0.05368364 0.47446503
H 6.403291 8.137705 8.427333 1 -0.07505158 0.03111911 0.11899177
C 5.758059 6.390979 9.472725 6 0.30337753 -0.14093049 -0.46637788
H 5.875309 6.727574 10.506959 1 -0.03854961 0.41319869 -0.23113565
H 5.466117 5.342454 9.412559 1 -0.12583605 -0.06933087 -0.20340526
6
energy=-373.381985 Lattice="12.718 0.0 0.0 0.0 12.718 0.0 0.0 0.0 12.718" Properties=species:S:1:pos:R:3:Z:I:1:force:R:3
C 5.942771 6.109174 8.077682 6 -0.34060199 0.85951629 -0.66064286
H 5.685105 5.217745 8.675442 1 0.26163359 0.57911106 0.10821524
H 6.143980 5.899952 7.015727 1 0.13522058 -0.07127926 0.26946415
C 5.856957 7.405872 8.471412 6 -0.27701291 -1.22041201 -0.29277584
H 5.984033 8.250334 7.756954 1 0.07217195 -0.56685666 0.60532142
H 5.542286 7.594589 9.499903 1 0.14702915 0.41010102 -0.03403269
6
energy=-373.339145 Lattice="12.718 0.0 0.0 0.0 12.718 0.0 0.0 0.0 12.718" Properties=species:S:1:pos:R:3:Z:I:1:force:R:3
C 6.214730 5.683187 6.601172 6 -0.00854841 -3.47786380 1.10720729
H 6.019488 5.233501 7.611032 1 0.04574150 0.73487529 -0.61074491
H 6.438717 4.854848 5.877370 1 -0.12053854 0.95992102 0.23311386
C 6.197358 6.953225 6.312135 6 -0.07577715 1.78692466 0.38054411
H 6.441814 7.217103 5.292978 1 -0.04124567 0.61793526 -0.25756096
H 5.981552 7.741833 7.082690 1 0.19701863 -0.62339989 -0.85023203
6
energy=-373.400697 Lattice="12.718 0.0 0.0 0.0 12.718 0.0 0.0 0.0 12.718" Properties=species:S:1:pos:R:3:Z:I:1:force:R:3
C 5.826442 6.074282 7.812612 6 -0.14807816 -0.30692515 0.76340530
H 5.636846 5.605062 8.790396 1 -0.03666190 0.45755642 -0.04459016
H 5.962962 5.309905 7.045637 1 0.07209173 0.30622529 -0.32707747
C 5.891906 7.391973 7.591349 6 0.24341165 0.26832823 -0.08629091
H 6.136862 7.704069 6.564075 1 -0.16749566 0.23111303 0.31360333
H 5.778717 8.206117 8.359405 1 0.03769343 -0.95524675 -0.62186494
6
energy=-373.416882 Lattice="12.718 0.0 0.0 0.0 12.718 0.0 0.0 0.0 12.718" Properties=species:S:1:pos:R:3:Z:I:1:force:R:3
C 5.947751 5.886252 7.260806 6 0.01499417 0.99901827 -0.11854131
H 5.659912 6.155978 8.276379 1 -0.09557877 0.11177828 0.04347121
H 6.089069 4.833585 7.094348 1 0.07923888 -0.53842230 -0.22446415
C 6.147118 6.807711 6.296068 6 -0.10917580 -1.02050346 1.34296733
H 6.487029 6.425532 5.348691 1 0.07187215 0.39329113 -0.67654926
H 6.028901 7.866053 6.525402 1 0.03831461 0.04651180 -0.36825474
6
energy=-373.324332 Lattice="12.718 0.0 0.0 0.0 12.718 0.0 0.0 0.0 12.718" Properties=species:S:1:pos:R:3:Z:I:1:force:R:3
C 5.852500 6.034540 9.404210 6 0.09151694 1.25254723 -1.75947606
H 5.915806 5.852597 10.441548 1 0.16083753 0.36201107 1.45174204
H 5.642010 5.123529 8.891111 1 -0.18380984 -0.63042106 -0.91171383
C 6.022475 7.243818 8.805793 6 0.07775381 -0.76167649 1.95842096
H 5.986277 7.450613 7.734340 1 -0.05812034 -0.13024498 0.15069863
H 6.234029 8.061643 9.532349 1 -0.08893658 -0.10406702 -0.88101690
6
energy=-373.342261 Lattice="12.718 0.0 0.0 0.0 12.718 0.0 0.0 0.0 12.718" Properties=species:S:1:pos:R:3:Z:I:1:force:R:3
C 5.934370 5.957960 9.080683 6 0.07140010 -1.16643578 1.49252337
H 5.954372 5.291298 10.009322 1 -0.04709750 1.08608566 -0.85932345
H 5.912569 5.284773 8.198451 1 0.01011884 1.02729992 -0.02501839
C 5.951910 7.302195 9.175809 6 -0.04043114 -1.32748414 -0.40888231
H 5.944859 7.899391 8.277841 1 -0.01538086 0.39220047 -0.30822252
H 5.969340 7.819881 10.131194 1 0.01956817 -0.02555370 0.09843116
6
energy=-373.332709 Lattice="12.718 0.0 0.0 0.0 12.718 0.0 0.0 0.0 12.718" Properties=species:S:1:pos:R:3:Z:I:1:force:R:3
C 6.342114 5.886465 5.952121 6 0.46108346 0.83375073 -0.55319587
H 6.545891 4.811250 6.128983 1 -0.20236962 0.57878042 -0.57857833
H 6.509325 6.452035 4.999170 1 -0.05909376 -1.26827519 0.28542351
C 6.032354 6.688231 6.966885 6 0.03948754 0.31613176 0.88246597
H 5.943748 7.791310 6.866905 1 -0.08808966 -0.68991026 -0.00836792
H 5.941886 6.270971 7.977261 1 -0.15244082 0.23191521 -0.04040697
6