6
energy=-373.350593 Lattice="12.718 0.0 0.0 0.0 12.718 0.0 0.0 0.0 12.718" Properties=species:S:1:pos:R:3:Z:I:1:force:R:3
C 5.946151 6.795784 7.165917 6 -0.55581479 1.26372176 1.03928435
H 5.900307 7.864865 6.880048 1 0.17081702 -0.50766314 -0.01751025
H 5.654341 6.615444 8.200128 1 0.16466488 -0.14456758 0.16211794
C 6.223514 5.835244 6.307560 6 -0.47137045 0.21303713 -0.15694745
H 6.145747 4.790823 6.588184 1 0.24790080 -0.21870488 -0.25357420
H 6.336580 6.196724 5.300957 1 0.44274428 -0.60557647 -0.77670460
6
energy=-373.423434 Lattice="12.718 0.0 0.0 0.0 12.718 0.0 0.0 0.0 12.718" Properties=species:S:1:pos:R:3:Z:I:1:force:R:3
C 6.001540 7.293714 8.607628 6 0.32366664 1.17713569 -0.63615668
H 5.950855 7.317687 7.502391 1 -0.02462604 -0.20074571 0.42435728
H 6.243838 8.302456 9.026280 1 -0.23518463 -0.89267531 0.08397846
C 5.820291 6.169005 9.294730 6 -0.19480491 -0.14683426 -0.95309268
H 5.852857 6.135598 10.364269 1 0.06059786 -0.11522458 0.69345170
H 5.596069 5.245422 8.736368 1 0.07167418 0.18286007 0.39224418
6
energy=-373.347683 Lattice="12.718 0.0 0.0 0.0 12.718 0.0 0.0 0.0 12.718" Properties=species:S:1:pos:R:3:Z:I:1:force:R:3
C 5.923824 5.836290 7.053837 6 0.47855566 0.41835684 0.09639844
H 5.747956 5.539473 8.106490 1 -0.00966427 -0.48133297 -0.77479889
H 6.241787 5.178551 6.222125 1 -0.42313652 -0.25525468 0.79405081
C 5.950300 7.143362 6.791239 6 0.02469855 0.88758967 0.96067487
H 6.238995 7.517576 5.821296 1 -0.03442195 0.16558893 -0.45508301
H 5.784116 7.930714 7.574601 1 -0.03614357 -0.73663547 -0.63015572
6
energy=-373.327926 Lattice="12.718 0.0 0.0 0.0 12.718 0.0 0.0 0.0 12.718" Properties=species:S:1:pos:R:3:Z:I:1:force:R:3
C 6.247453 7.006659 6.328988 6 -0.25525622 1.26679783 0.18790201
H 6.357212 7.461014 5.291318 1 -0.18591197 -0.16671713 1.51910448
H 6.028207 7.608767 7.263198 1 0.32457270 -0.17762273 -1.31892339
C 6.336088 5.693997 6.454700 6 0.14703172 -0.79878679 -1.67425215
H 6.226023 5.116895 7.341951 1 -0.10114367 -0.19688596 1.00058253
H 6.488124 5.089384 5.544647 1 0.07326981 0.07056449 0.28386182
6
energy=-373.373938 Lattice="12.718 0.0 0.0 0.0 12.718 0.0 0.0 0.0 12.718" Properties=species:S:1:pos:R:3:Z:I:1:force:R:3
C 6.261216 6.535087 6.067108 6 -0.00186251 0.36181927 -1.76713435
H 6.514142 5.799845 5.244200 1 -0.09328329 0.85751340 0.82852933
H 6.173972 7.614542 5.737498 1 0.18788298 -1.12385776 0.55534634
C 5.966560 6.074439 7.273862 6 -0.72179402 0.22779528 1.16568347
H 5.591408 6.690497 8.131493 1 0.47133754 -0.24561098 -0.78243713
H 5.974732 5.003408 7.476779 1 0.15793578 -0.07577355 0.00839209
6
energy=-373.309087 Lattice="12.718 0.0 0.0 0.0 12.718 0.0 0.0 0.0 12.718" Properties=species:S:1:pos:R:3:Z:I:1:force:R:3
C 6.253646 7.002676 6.276383 6 0.26149629 1.30782495 -0.14217028
H 6.430848 7.498452 5.266747 1 -0.27160176 -1.04623508 0.93687981
H 6.120500 7.827794 7.048062 1 -0.05079835 -1.34747448 -0.47644992
C 6.305371 5.673139 6.502605 6 0.71733367 0.95780655 -1.29528876
H 6.265163 5.220265 7.475453 1 -0.27215198 -0.10427013 0.56766142
H 6.587416 5.003876 5.663759 1 -0.38441876 0.23897341 0.41419473
6
energy=-373.381002 Lattice="12.718 0.0 0.0 0.0 12.718 0.0 0.0 0.0 12.718" Properties=species:S:1:pos:R:3:Z:I:1:force:R:3
C 6.068470 6.980165 8.294687 6 -0.18656144 0.50927059 0.40927312
H 5.912220 6.339659 7.402320 1 0.22278728 0.33229938 0.50333237
H 6.409233 8.026653 8.116148 1 -0.13697665 -0.72955310 0.08756104
C 5.754837 6.531171 9.525686 6 -0.16527423 0.03119522 -0.38415188
H 5.755535 7.042325 10.497158 1 0.38100125 0.46886311 -0.50184113
H 5.366656 5.531949 9.640216 1 -0.11293733 -0.61671296 -0.11613784
6
energy=-373.364451 Lattice="12.718 0.0 0.0 0.0 12.718 0.0 0.0 0.0 12.718" Properties=species:S:1:pos:R:3:Z:I:1:force:R:3
C 6.263536 5.777131 6.713517 6 -0.64936034 -0.91090188 1.76601438
H 5.939609 5.865435 7.789295 1 0.34902699 0.30390101 -0.88449714
H 6.398837 4.689033 6.491913 1 0.15683689 0.98574726 -0.52557654
C 6.354319 6.833628 5.907531 6 -0.20362792 -0.07571441 0.24725031
H 6.604008 6.676871 4.869753 1 0.17896639 0.19693533 -0.46772514
H 6.131487 7.861942 6.247640 1 0.17023029 -0.50213938 -0.13696379
6
energy=-373.318964 Lattice="12.718 0.0 0.0 0.0 12.718 0.0 0.0 0.0 12.718" Properties=species:S:1:pos:R:3:Z:I:1:force:R:3
C 6.044318 5.800525 7.014023 6 -0.09763926 -0.34454658 0.99279209
H 5.741738 6.049168 8.016970 1 -0.14771564 -0.26362979 0.48817056
H 6.255613 4.820688 6.714206 1 0.10152985 -1.84673576 -0.01571768
C 6.230690 6.749338 6.152984 6 -0.14841755 2.85419806 -0.75154993
H 6.525701 6.659036 5.124143 1 0.23957248 -0.39212848 -0.49759881
H 6.043679 7.781939 6.476529 1 0.05217286 -0.00770509 -0.20932857
6
energy=-373.355528 Lattice="12.718 0.0 0.0 0.0 12.718 0.0 0.0 0.0 12.718" Properties=species:S:1:pos:R:3:Z:I:1:force:R:3
C 5.955350 5.723179 9.240657 6 0.13198819 -1.33594616 0.09636039
H 6.050029 4.915222 10.037241 1 -0.10362324 0.68520360 -1.33143850
H 5.892042 5.511574 8.135479 1 0.05538314 -0.34009651 1.22539996
C 5.931290 6.993145 9.606245 6 -0.13543038 0.63915562 0.06863205
H 5.813762 7.737134 8.832518 1 0.03035807 0.50176554 -0.17287030
H 5.988260 7.363794 10.628321 1 0.02054056 -0.15140106 0.10938972
6
energy=-373.348760 Lattice="12.718 0.0 0.0 0.0 12.718 0.0 0.0 0.0 12.718" Properties=species:S:1:pos:R:3:Z:I:1:force:R:3
C 6.190187 6.904303 6.541988 6 -0.29922109 2.09713722 0.86968295
H 6.077308 7.835613 5.884657 1 0.18749218 -1.42083376 0.72263837
H 6.096521 7.110072 7.631419 1 0.03142199 -0.07818010 -0.57017596
C 6.430868 5.687247 6.089051 6 -0.23762204 0.49374626 -1.26299774
H 6.505324 4.815407 6.715523 1 0.12518196 -0.37848825 0.14533685
H 6.473247 5.634341 4.996433 1 0.19511396 -0.72136516 0.09877517
6
energy=-373.364958 Lattice="12.718 0.0 0.0 0.0 12.718 0.0 0.0 0.0 12.718" Properties=species:S:1:pos:R:3:Z:I:1:force:R:3
C 5.696249 6.850849 8.206362 6 0.16037627 -0.34296432 -1.64258385
H 5.682913 7.854956 8.637139 1 0.16013408 -0.06013095 -0.13704092
H 5.335984 6.039427 8.832654 1 0.08550878 -0.08072241 0.24491935
C 6.024756 6.576612 6.913543 6 -0.48751802 1.35826489 0.78111044
H 5.934725 5.616298 6.459967 1 -0.05997925 -1.14474388 0.12271524
H 6.273255 7.309994 6.130733 1 0.13981155 0.27827429 0.63952072
6
energy=-373.297471 Lattice="12.718 0.0 0.0 0.0 12.718 0.0 0.0 0.0 12.718" Properties=species:S:1:pos:R:3:Z:I:1:force:R:3
C 6.049839 6.982449 7.756348 6 -0.18765261 0.66459825 1.18287131
H 6.016861 6.444830 6.834065 1 -0.08082269 -0.72181870 -0.43284398
H 6.303740 8.022672 7.684881 1 0.31827297 0.67058121 -0.32783748
C 5.743751 6.549372 8.978309 6 -0.22695452 -0.18935108 1.19915103
H 5.747954 7.113010 9.941733 1 0.28826098 0.44707351 -1.04762193
H 5.424129 5.560060 9.257943 1 -0.10935270 -0.88099376 -0.56988028
6
energy=-373.385533 Lattice="12.718 0.0 0.0 0.0 12.718 0.0 0.0 0.0 12.718" Properties=species:S:1:pos:R:3:Z:I:1:force:R:3
C 6.400239 6.508418 5.820532 6 -0.06377626 0.05164167 -1.41607156
H 6.698323 5.708060 5.124727 1 0.13543861 0.27553247 0.13429704
H 6.250072 7.501349 5.335640 1 0.18480023 -0.53772501 0.61596220
C 6.112439 6.200961 7.078293 6 -0.37857413 0.86545914 -0.55457501
H 5.689628 6.975267 7.704671 1 0.02721926 -0.03933996 0.59958889
H 6.175811 5.180285 7.385389 1 0.09462746 -0.61548191 0.62439336
6
energy=-373.422425 Lattice="12.718 0.0 0.0 0.0 12.718 0.0 0.0 0.0 12.718" Properties=species:S:1:pos:R:3:Z:I:1:force:R:3
C 6.102699 6.276646 8.594804 6 -0.40638937 -0.35533031 0.95646546
H 5.996415 5.178965 8.582031 1 0.22066920 0.31569673 -0.19682117
H 6.383017 6.753139 7.657576 1 0.04078955 0.21152172 0.07687141
C 5.817872 6.897897 9.757661 6 -0.37532888 -0.18837149 -0.44272628
H 5.766752 7.984322 9.893391 1 0.28343913 -0.12015596 -0.16175182
H 5.473506 6.312199 10.625217 1 0.23797737 0.13136341 -0.24037055
6
energy=-373.313947 Lattice="12.718 0.0 0.0 0.0 12.718 0.0 0.0 0.0 12.718" Properties=species:S:1:pos:R:3:Z:I:1:force:R:3
C 6.053212 6.181845 7.108443 6 0.79423439 1.33545148 -2.29609858
H 5.797559 7.035505 7.728343 1 -0.24934833 -0.02231462 0.35441243
H 6.168547 5.215481 7.587731 1 -0.12117875 -0.21394165 -0.18252891
C 6.368661 6.466821 5.797894 6 0.52372432 -2.21248162 0.90770908
H 6.761972 5.671372 5.086804 1 -0.59405124 0.66096322 0.92191958
H 6.398426 7.444837 5.335125 1 -0.35496264 0.45044988 0.29558400
6
energy=-373.424470 Lattice="12.718 0.0 0.0 0.0 12.718 0.0 0.0 0.0 12.718" Properties=species:S:1:pos:R:3:Z:I:1:force:R:3
C 6.055155 6.747382 6.373259 6 0.29247348 -0.25478416 0.20034204
H 6.308927 6.066300 5.567078 1 -0.17810199 -0.28445626 -0.09486143
H 6.178472 7.790877 6.138206 1 -0.08027864 0.54223833 -0.14630873
C 5.754862 6.364850 7.618051 6 0.40978734 0.13285311 -0.83718881
H 5.643621 7.143842 8.354054 1 -0.28233767 0.02082544 0.60231888
H 5.717298 5.315807 7.884035 1 -0.15975715 -0.15726678 0.27877617
6
energy=-373.325355 Lattice="12.718 0.0 0.0 0.0 12.718 0.0 0.0 0.0 12.718" Properties=species:S:1:pos:R:3:Z:I:1:force:R:3
C 5.708010 7.112570 8.047846 6 0.56019339 -0.75387113 -1.35117327
H 5.879502 8.163449 8.008467 1 0.03849613 0.96538925 -0.05180519
H 5.388753 6.710952 8.991241 1 -0.29397655 -0.29994665 0.41389237
C 5.977011 6.321910 6.992706 6 0.21000991 -1.29700677 0.19139974
H 5.885567 5.217760 7.061255 1 -0.27113331 0.43946458 0.37598914
H 6.403862 6.518159 5.996531 1 -0.24631237 0.95212955 0.42440716
6
energy=-373.364783 Lattice="12.718 0.0 0.0 0.0 12.718 0.0 0.0 0.0 12.718" Properties=species:S:1:pos:R:3:Z:I:1:force:R:3
C 6.207706 5.645545 6.402967 6 -0.16024669 1.77489652 1.01904872
H 6.127841 4.886604 7.141560 1 -0.14200059 -1.02689625 0.58543187
H 6.506359 5.334571 5.420072 1 -0.00914285 0.09584925 -0.63259416
C 6.029688 6.925575 6.823503 6 0.88338437 -1.41988811 -2.07636423
H 6.203890 7.717063 6.089269 1 -0.23211782 0.26014595 0.31777418
H 5.857670 7.149325 7.849506 1 -0.33988414 0.32497327 0.78614569
6
energy=-373.324513 Lattice="12.718 0.0 0.0 0.0 12.718 0.0 0.0 0.0 12.718" Properties=species:S:1:pos:R:3:Z:I:1:force:R:3
C 5.890340 7.397516 7.990412 6 -0.02351070 2.30210520 0.30050252
H 6.067392 8.098431 7.140070 1 0.05633600 -1.08493432 -0.00824502
H 5.714713 8.078409 8.880644 1 0.06095936 -1.27558895 -0.47387419
C 5.873131 6.068569 8.009660 6 -0.35860693 0.39035545 0.65669056
H 5.620964 5.573074 8.946324 1 0.11292139 -0.18038821 0.06243260
H 6.023041 5.430495 7.158192 1 0.15152190 -0.15500575 -0.54255098
6
energy=-373.361953 Lattice="12.718 0.0 0.0 0.0 12.718 0.0 0.0 0.0 12.718" Properties=species:S:1:pos:R:3:Z:I:1:force:R:3
C 6.085929 6.816717 6.895782 6 0.32720654 -1.36363079 -1.22398173
H 5.939741 7.842642 6.716868 1 -0.05639719 1.40188369 -0.82598496
H 5.947501 6.588562 7.907825 1 -0.16120263 -0.69735412 1.68669476
C 6.376653 5.864295 5.990996 6 0.00981082 1.07502991 -0.39565758
H 6.495342 4.829483 6.295950 1 0.02397761 -0.18290532 -0.03304281
H 6.530687 6.109884 4.911511 1 -0.14427859 -0.24172295 0.79187771
6
energy=-373.389675 Lattice="12.718 0.0 0.0 0.0 12.718 0.0 0.0 0.0 12.718" Properties=species:S:1:pos:R:3:Z:I:1:force:R:3
C 6.006665 5.999764 8.877543 6 -0.16014950 0.88992886 0.03817268
H 5.954692 5.157421 9.513173 1 0.07545165 -1.26572722 0.41170384
H 6.063424 5.923562 7.814049 1 0.20058424 -0.48536960 -0.75329057
C 5.902166 7.202992 9.415282 6 -0.50275799 1.45002557 -0.08284100
H 5.855436 8.119735 8.789941 1 0.18605339 -0.47732204 0.29503121
H 5.723269 7.373084 10.477516 1 0.20339137 -0.10112722 0.09575772
6
energy=-373.382335 Lattice="12.718 0.0 0.0 0.0 12.718 0.0 0.0 0.0 12.718" Properties=species:S:1:pos:R:3:Z:I:1:force:R:3
C 6.130726 6.182875 7.057707 6 0.04131406 0.75470828 -0.04853372
H 5.769092 6.953691 7.810512 1 0.35829685 -0.77752221 -1.02790978
H 6.275671 5.182455 7.499575 1 -0.08420729 0.22014932 -0.43685954
C 6.417476 6.518374 5.771919 6 -0.06880483 0.42741690 1.51390828
H 6.845528 5.864249 5.023103 1 -0.04391396 -0.46185016 -0.00989567
H 6.347096 7.568841 5.464779 1 -0.20214850 -0.15614372 -0.00047205
6
energy=-373.322965 Lattice="12.718 0.0 0.0 0.0 12.718 0.0 0.0 0.0 12.718" Properties=species:S:1:pos:R:3:Z:I:1:force:R:3
C 6.172244 6.388303 6.196952 6 0.36585384 1.08652995 -1.35578120
H 6.378818 5.550641 5.592451 1 0.24120513 -1.33891218 -0.60724204
H 6.268725 7.336233 5.666939 1 -0.06644764 0.11724239 -0.04138965
C 5.856875 6.370220 7.464402 6 -0.28016560 0.71321424 0.77838815
H 5.680720 7.377185 7.873124 1 -0.09423254 -0.66874750 0.71508704
H 5.785819 5.433013 8.002375 1 -0.16665645 0.07831226 0.50488686
6
energy=-373.419353 Lattice="12.718 0.0 0.0 0.0 12.718 0.0 0.0 0.0 12.718" Properties=species:S:1:pos:R:3:Z:I:1:force:R:3
C 5.773987 6.276106 9.977451 6 0.63320505 0.35066581 -1.51524628
H 5.847899 6.939984 10.833996 1 0.00055639 0.26949551 -0.09302772
H 5.452290 5.278175 10.169293 1 -0.38606221 -0.84075031 0.36883581
C 6.132164 6.581821 8.707620 6 -0.02957902 0.59594100 0.90956028
H 6.092855 5.888811 7.870448 1 -0.16141809 -0.32202165 0.12889258
H 6.499183 7.574856 8.420309 1 -0.05831780 -0.05075310 0.21381566
6
energy=-373.368965 Lattice="12.718 0.0 0.0 0.0 12.718 0.0 0.0 0.0 12.718" Properties=species:S:1:pos:R:3:Z:I:1:force:R:3
C 5.931826 5.961589 7.319816 6 0.30342639 0.89847676 -1.31382540
H 5.634139 6.397597 8.247946 1 -0.22704708 0.15608767 0.72309397
H 6.051908 4.922095 7.217757 1 0.05035098 -1.57275007 0.30788417
C 6.172879 6.717134 6.238856 6 -0.46650900 0.42759636 1.51385840
H 6.477064 6.286177 5.304486 1 0.15458100 0.02151295 -0.57223798
H 6.035306 7.791202 6.391980 1 0.18612332 0.05710784 -0.66120593
6
energy=-373.323966 Lattice="12.718 0.0 0.0 0.0 12.718 0.0 0.0 0.0 12.718" Properties=species:S:1:pos:R:3:Z:I:1:force:R:3
C 6.258406 5.753304 6.664163 6 0.14916214 -1.60882987 -0.48561746
H 6.027662 5.606529 7.682793 1 -0.23898215 -0.72918080 1.20965862
H 6.470148 4.956000 5.955874 1 -0.03214036 -0.52534463 0.41477991
C 6.277627 6.954203 6.192591 6 0.34050480 2.78577273 -1.48522400
H 6.533420 7.170896 5.154292 1 -0.03973489 -0.13778346 -0.14891377
H 6.101899 7.855854 6.759655 1 -0.17921527 0.21991381 0.49653437
6
energy=-373.404256 Lattice="12.718 0.0 0.0 0.0 12.718 0.0 0.0 0.0 12.718" Properties=species:S:1:pos:R:3:Z:I:1:force:R:3
C 6.414543 5.744550 6.051189 6 0.65138688 -2.06582322 -0.96542576
H 6.545380 4.793790 6.617748 1 -0.20267918 0.71840170 -0.07829323
H 6.571021 5.582000 4.975317 1 -0.16678552 0.34761134 0.10612647
C 6.178390 6.901405 6.621202 6 -0.17777237 0.65674609 1.26378964
H 6.081467 7.854096 6.098940 1 -0.01386288 -0.08383911 -0.02284581
H 6.093972 6.887824 7.720406 1 -0.08864244 0.42749557 -0.30998887
6
energy=-373.316925 Lattice="12.718 0.0 0.0 0.0 12.718 0.0 0.0 0.0 12.718" Properties=species:S:1:pos:R:3:Z:I:1:force:R:3
C 5.738678 6.679803 9.230567 6 -0.27084071 -0.15717936 -0.70521708
H 5.811842 7.524964 9.841877 1 0.19111178 1.22828576 1.45274580
H 5.268454 5.805749 9.658136 1 0.09299790 -0.43660602 -0.04713761
C 6.069362 6.856496 7.953528 6 -0.61549066 -1.00299989 0.04437110
H 5.875484 5.999419 7.287198 1 0.43094342 0.63204137 -0.32780817
H 6.400752 7.843389 7.631955 1 0.17425047 -0.25460933 -0.40462611
6
energy=-373.345094 Lattice="12.718 0.0 0.0 0.0 12.718 0.0 0.0 0.0 12.718" Properties=species:S:1:pos:R:3:Z:I:1:force:R:3
C 6.331792 5.743023 6.082001 6 -0.36889803 1.02655687 1.57588733
H 6.369994 4.739743 6.505117 1 -0.06644301 -0.03640479 0.35429775
H 6.546734 5.713084 5.013642 1 -0.09584051 0.61969133 -0.05508284
C 6.060454 6.856623 6.850949 6 0.65547391 -1.07354638 -2.69150419
H 6.053613 7.827392 6.300393 1 -0.08281066 -0.45872421 0.72953459
H 5.873286 6.832240 7.918640 1 -0.04073042 -0.06752699 0.09697128
6
energy=-373.429587 Lattice="12.718 0.0 0.0 0.0 12.718 0.0 0.0 0.0 12.718" Properties=species:S:1:pos:R:3:Z:I:1:force:R:3
C 6.202008 6.994129 6.500640 6 0.06790185 0.77729852 -0.16773786
H 6.270286 7.699776 5.652560 1 -0.16621268 -0.13884790 0.45750962
H 6.053262 7.405995 7.503251 1 -0.05135062 0.03884734 -0.13778243
C 6.362883 5.695118 6.285777 6 0.31793616 0.32204890 -0.32889524
H 6.391284 5.003803 7.112297 1 -0.09987920 -0.52504021 0.10624526
H 6.574874 5.383928 5.264105 1 -0.06898223 -0.48458439 0.06869838
6
energy=-373.354201 Lattice="12.718 0.0 0.0 0.0 12.718 0.0 0.0 0.0 12.718" Properties=species:S:1:pos:R:3:Z:I:1:force:R:3
C 6.088281 6.915621 6.407147 6 0.45510667 -0.86712110 -0.42489361
H 6.456519 6.736203 5.386600 1 -0.26860437 0.25612062 0.13678690
H 5.966840 7.935584 6.757754 1 -0.08046787 0.16937463 -0.11533874
C 5.909614 5.893212 7.245252 6 0.12416689 0.42389037 1.16688161
H 5.684872 6.102574 8.289782 1 -0.33641983 0.27398003 0.17757748
H 6.075364 4.829380 7.148330 1 0.10641392 -0.25402672 -0.94036263
6
energy=-373.230687 Lattice="12.718 0.0 0.0 0.0 12.718 0.0 0.0 0.0 12.718" Properties=species:S:1:pos:R:3:Z:I:1:force:R:3
C 6.004265 6.925885 6.954574 6 -0.88044251 2.52645982 0.81592629
H 6.050821 7.849566 6.249495 1 -0.03489555 -1.39601694 1.54407865
H 5.663739 6.981521 8.044461 1 0.60906804 0.66815820 -1.39646997
C 6.176629 5.714423 6.497161 6 0.01087217 -0.99889538 -1.75651620
H 6.005586 4.875390 7.143030 1 0.12117155 -0.67958522 0.23291537
H 6.345792 5.532675 5.417693 1 0.17587438 -0.11678936 0.56277220
6
energy=-373.270096 Lattice="12.718 0.0 0.0 0.0 12.718 0.0 0.0 0.0 12.718" Properties=species:S:1:pos:R:3:Z:I:1:force:R:3
C 6.332665 5.721793 6.317257 6 0.72953716 -2.76813392 -0.33969028
H 6.351599 4.867182 7.066014 1 -0.35990122 1.50982999 -0.10646380
H 6.589042 5.216711 5.366710 1 -0.26267694 0.84977129 -0.16984771
C 6.177581 7.015047 6.527883 6 0.15782625 0.59962282 1.45548866
H 6.289259 7.809499 5.787497 1 -0.14181084 -0.23411351 -0.13633541
H 6.048271 7.339443 7.585953 1 -0.12135461 0.05230502 -0.70260535
6
energy=-373.414140 Lattice="12.718 0.0 0.0 0.0 12.718 0.0 0.0 0.0 12.718" Properties=species:S:1:pos:R:3:Z:I:1:force:R:3
C 5.872522 6.824287 9.884873 6 0.21564937 -0.21606538 0.62806439
H 5.760802 7.684019 9.267003 1 -0.12767490 1.00861775 -0.22976731
H 5.972434 6.923289 10.966301 1 -0.14472339 0.19136992 -0.02545548
C 5.955087 5.646464 9.296912 6 0.25538889 -1.71347282 -0.60886595
H 6.096280 4.693644 9.870670 1 -0.12320067 0.76228584 -0.48617539
H 5.925173 5.555533 8.186420 1 -0.07564757 -0.02978728 0.72814516
6
energy=-373.359412 Lattice="12.718 0.0 0.0 0.0 12.718 0.0 0.0 0.0 12.718" Properties=species:S:1:pos:R:3:Z:I:1:force:R:3
C 5.838185 7.361450 7.448765 6 -0.08546096 -0.12717354 0.43709145
H 6.048466 7.963278 6.598136 1 0.30088716 0.08985292 -1.26351967
H 5.630302 8.020739 8.262231 1 -0.27210364 0.03192850 1.17514257
C 5.844942 6.032335 7.460156 6 0.01018569 -0.39120237 -0.43912417
H 5.633797 5.355816 8.293215 1 -0.03204728 0.45774668 0.20595014
H 6.058338 5.504156 6.530801 1 0.08174468 -0.06180474 -0.10916089
6
energy=-373.398189 Lattice="12.718 0.0 0.0 0.0 12.718 0.0 0.0 0.0 12.718" Properties=species:S:1:pos:R:3:Z:I:1:force:R:3
C 6.049172 6.903734 6.458553 6 -0.22770837 1.66774212 -0.91762377
H 6.210280 6.479028 5.441321 1 0.04055404 0.12798035 0.81608621
H 5.988027 8.025762 6.531356 1 0.25285738 -0.93950902 -0.35142840
C 5.787299 6.223623 7.560152 6 -0.39887197 -0.37115186 0.84645765
H 5.529894 6.741048 8.511011 1 0.28186407 -0.37216693 -0.55465420
H 5.747358 5.135517 7.555999 1 0.04966501 -0.11925145 0.15176359
6
energy=-373.206857 Lattice="12.718 0.0 0.0 0.0 12.718 0.0 0.0 0.0 12.718" Properties=species:S:1:pos:R:3:Z:I:1:force:R:3
C 5.966430 6.310251 7.188401 6 0.30613067 -1.83074606 3.08610402
H 5.768678 7.259391 7.774549 1 -0.00116368 -0.99937720 -0.92719651
H 6.038236 5.336661 7.865311 1 -0.35793227 1.92516012 -1.29455342
C 6.308056 6.254431 5.915282 6 0.45156934 0.64208359 -0.55821004
H 6.686219 5.402545 5.337155 1 -0.37349054 -0.04756596 0.38979340
H 6.343690 7.213055 5.421862 1 -0.02653329 0.31358019 -0.68406768
6
energy=-373.408209 Lattice="12.718 0.0 0.0 0.0 12.718 0.0 0.0 0.0 12.718" Properties=species:S:1:pos:R:3:Z:I:1:force:R:3
C 5.988192 6.894188 6.747127 6 -0.06277559 0.61117274 0.20063824
H 6.052432 6.202644 5.937275 1 0.13762097 -0.35414606 -0.75998573
H 6.137557 7.943841 6.592733 1 0.22041620 0.63197864 -0.50671080
C 5.681033 6.478575 7.956597 6 -0.20366905 -0.15054951 1.14321201
H 5.581792 7.114773 8.847996 1 0.06838677 0.00244615 -0.37364841
H 5.516619 5.432053 8.115279 1 -0.15965379 -0.74922103 0.30559126
6
energy=-373.322968 Lattice="12.718 0.0 0.0 0.0 12.718 0.0 0.0 0.0 12.718" Properties=species:S:1:pos:R:3:Z:I:1:force:R:3
C 6.408661 5.887649 5.993001 6 -0.08644518 0.28818025 -0.44479345
H 6.518757 4.847461 6.204993 1 0.18946627 -0.69247417 0.22420447
H 6.463222 6.241226 4.998098 1 0.28822756 -0.16202230 -1.48379858
C 6.123407 6.819671 6.866516 6 -0.71191635 0.20948952 2.10475438
H 5.905193 7.849984 6.664304 1 0.15473784 0.61393565 -0.65323910
H 5.953586 6.603174 7.919489 1 0.16520635 -0.26276539 0.25832200
6
energy=-373.374430 Lattice="12.718 0.0 0.0 0.0 12.718 0.0 0.0 0.0 12.718" Properties=species:S:1:pos:R:3:Z:I:1:force:R:3
C 5.870992 7.346061 7.304780 6 -0.22422555 0.10199471 0.62510556
H 6.043675 7.822675 6.366493 1 0.24478565 0.07226605 -0.83525945
H 5.682793 7.985018 8.135338 1 -0.12261960 0.93301955 0.63367608
C 5.816496 6.056076 7.559790 6 0.10447068 -1.80032680 -0.88826998
H 5.588231 5.618082 8.521505 1 -0.04248288 0.28266626 0.53940343
H 5.968434 5.263043 6.809026 1 0.03944795 0.41351956 -0.08232421
6
energy=-373.436329 Lattice="12.718 0.0 0.0 0.0 12.718 0.0 0.0 0.0 12.718" Properties=species:S:1:pos:R:3:Z:I:1:force:R:3
C 5.845783 7.414296 8.652780 6 0.32451973 0.62201663 0.35406533
H 6.057347 8.215238 7.917929 1 -0.23602384 -0.27453694 0.37031008
H 5.669389 7.742967 9.714776 1 0.02346185 -0.37269093 -1.02818540
C 5.931737 6.130590 8.294492 6 -0.03619447 -0.04098753 0.79164426
H 5.797284 5.340007 9.040855 1 -0.05690010 0.02689324 -0.13382550
H 6.186177 5.803349 7.295749 1 -0.01819725 0.02760184 -0.35040459
6
energy=-373.412636 Lattice="12.718 0.0 0.0 0.0 12.718 0.0 0.0 0.0 12.718" Properties=species:S:1:pos:R:3:Z:I:1:force:R:3
C 5.940582 7.204727 6.800963 6 0.40548023 0.48784506 -0.10750510
H 6.253165 7.526547 5.786290 1 -0.23556053 -0.69609737 0.33111359
H 5.805078 8.069814 7.454884 1 -0.22962025 -0.08351823 0.13999410
C 5.852392 5.959402 7.285444 6 0.29773036 -0.11090410 -0.23209468
H 5.607825 5.801040 8.351212 1 0.03224217 -0.05671446 -0.48691124
H 6.090016 5.067480 6.668771 1 -0.27139453 0.45249134 0.35037579
6
energy=-373.313977 Lattice="12.718 0.0 0.0 0.0 12.718 0.0 0.0 0.0 12.718" Properties=species:S:1:pos:R:3:Z:I:1:force:R:3
C 6.118913 6.437990 8.562671 6 -0.30808780 -0.35929753 0.95118132
H 6.038239 5.434104 8.176771 1 -0.03996474 -0.43002194 -0.11633582
H 6.470019 7.156660 7.888566 1 0.58504260 1.26412902 -1.11708187
C 5.793848 6.718472 9.829372 6 -0.07789471 -1.00854679 -0.94794276
H 5.846765 7.731441 10.221913 1 -0.08933253 -0.17897102 0.38109330
H 5.439330 5.814457 10.338276 1 -0.07532978 0.71073878 0.85318006
6
energy=-373.408487 Lattice="12.718 0.0 0.0 0.0 12.718 0.0 0.0 0.0 12.718" Properties=species:S:1:pos:R:3:Z:I:1:force:R:3
C 5.730761 6.636764 9.239363 6 -0.21378018 -1.48757913 -1.15306295
H 5.829740 7.365082 9.995133 1 0.17539975 1.01416517 0.91866507
H 5.366315 5.655875 9.582684 1 0.03951480 0.23260787 -0.25127306
C 6.052933 6.902123 7.966921 6 0.16075577 0.07200997 -0.10928379
H 6.004155 6.236268 7.087850 1 -0.16439902 -0.10204716 0.64317683
H 6.450500 7.883744 7.722235 1 0.00303185 0.26290834 -0.04550907
6
energy=-373.385263 Lattice="12.718 0.0 0.0 0.0 12.718 0.0 0.0 0.0 12.718" Properties=species:S:1:pos:R:3:Z:I:1:force:R:3
C 5.755451 7.108343 7.529490 6 0.85922884 -0.53773067 -1.57535666
H 5.991191 8.114022 7.222642 1 -0.15131313 0.57270593 0.02319137
H 5.457232 6.939976 8.526526 1 -0.52742208 -0.17208663 1.23737308
C 6.006579 6.104098 6.668181 6 -0.08707099 1.28396664 0.71352483
H 5.868298 5.093922 7.010139 1 -0.02306898 -0.64559264 -0.31732167
H 6.391830 6.370301 5.682225 1 -0.06793014 -0.49356577 -0.06896064
6
energy=-373.412747 Lattice="12.718 0.0 0.0 0.0 12.718 0.0 0.0 0.0 12.718" Properties=species:S:1:pos:R:3:Z:I:1:force:R:3
C 5.915508 7.062225 7.075583 6 0.13656476 -1.77904525 -0.64038409
H 6.059693 7.870875 6.412222 1 0.19468099 1.17407402 -0.63778471
H 5.586844 7.254658 8.072239 1 -0.13141072 0.22388154 0.78556925
C 6.079332 5.805397 6.623354 6 -0.65696772 0.19091432 1.03000369
H 5.858233 4.960435 7.290790 1 0.18613052 0.09637016 -0.15956586
H 6.311103 5.548283 5.601792 1 0.27197920 0.08617367 -0.38198856
6
energy=-373.360333 Lattice="12.718 0.0 0.0 0.0 12.718 0.0 0.0 0.0 12.718" Properties=species:S:1:pos:R:3:Z:I:1:force:R:3
C 5.856297 6.005976 7.380400 6 0.30761523 1.14370155 -1.89837692
H 5.603233 6.186151 8.404500 1 -0.09754207 0.68827967 0.62920287
H 5.905269 4.964405 7.171961 1 0.11978521 -1.03992353 -0.49816599
C 6.059662 6.957519 6.418557 6 -0.41048720 -0.81157186 2.40003756
H 6.300282 6.766291 5.384441 1 0.06267326 -0.21819785 -0.26375321
H 5.995913 7.987512 6.767224 1 0.01652038 0.24471109 -0.36553348
6
energy=-373.393989 Lattice="12.718 0.0 0.0 0.0 12.718 0.0 0.0 0.0 12.718" Properties=species:S:1:pos:R:3:Z:I:1:force:R:3
C 5.971101 6.206950 6.818878 6 0.06150906 -0.40713859 -0.57262674
H 5.840860 5.101000 6.882436 1 -0.02480396 0.77446413 0.51364867
H 6.331093 6.489783 5.808439 1 -0.12655390 0.14779277 0.54271090
C 5.715386 7.129558 7.759171 6 -0.13371854 0.57925042 -0.37139098
H 5.834579 8.218369 7.520225 1 0.03224680 -0.87617808 0.18282511
H 5.312074 6.932003 8.763124 1 0.19029879 -0.22499174 -0.29708810
6
energy=-373.419043 Lattice="12.718 0.0 0.0 0.0 12.718 0.0 0.0 0.0 12.718" Properties=species:S:1:pos:R:3:Z:I:1:force:R:3
C 6.168502 6.859375 6.663760 6 0.10872535 0.24262232 -0.79277554
H 6.017806 7.882690 6.239172 1 0.05701168 -0.92224765 0.04583766
H 6.128684 6.810605 7.737020 1 -0.07641375 -0.01208162 0.61387086
C 6.434103 5.747014 5.959613 6 0.27574741 0.68834137 -0.60142157
H 6.663001 4.798092 6.424618 1 -0.13887001 -0.25612320 0.40088978
H 6.558042 5.719804 4.863223 1 -0.22456648 0.26925846 0.33121797
6
energy=-373.354695 Lattice="12.718 0.0 0.0 0.0 12.718 0.0 0.0 0.0 12.718" Properties=species:S:1:pos:R:3:Z:I:1:force:R:3
C 5.958410 7.124989 6.901590 6 0.02170578 0.99729306 -0.88042297
H 6.091925 6.963359 5.810517 1 -0.06209476 -0.78068004 0.65790669
H 5.991141 8.226645 7.036617 1 0.01256962 -0.55037896 0.62868042
C 5.726453 6.240054 7.876989 6 -0.38921850 0.00027408 -0.44395733
H 5.527384 6.579005 8.891390 1 0.13903250 0.05930048 0.14529674
H 5.580965 5.162901 7.709051 1 0.27713632 0.27614028 -0.10871660
6
energy=-373.362845 Lattice="12.718 0.0 0.0 0.0 12.718 0.0 0.0 0.0 12.718" Properties=species:S:1:pos:R:3:Z:I:1:force:R:3
C 5.789859 6.130622 9.917936 6 0.04088314 0.25289080 -0.19104441
H 5.838654 6.661530 10.835511 1 0.16362975 0.62567943 0.94034103
H 5.410877 5.153482 10.002886 1 -0.45291043 -1.49207034 -0.06196980
C 6.128437 6.698873 8.773526 6 0.08075224 1.16877445 -0.08815136
H 6.017047 6.187180 7.812510 1 0.20740333 0.25769054 0.05516563
H 6.440355 7.770341 8.851489 1 -0.04253225 -0.81939728 -0.65441204
6
energy=-373.361636 Lattice="12.718 0.0 0.0 0.0 12.718 0.0 0.0 0.0 12.718" Properties=species:S:1:pos:R:3:Z:I:1:force:R:3
C 5.800426 6.192420 8.591965 6 0.08322615 1.28084481 -2.03369469
H 5.670226 6.225935 9.637912 1 -0.06023071 -0.01814172 1.26122779
H 5.688023 5.282099 8.048438 1 -0.00692604 -1.08192767 -0.01800133
C 5.984389 7.288301 7.834609 6 0.00083818 1.18023027 0.62808238
H 6.070142 7.316891 6.740977 1 -0.03287621 -0.50121995 0.18554379
H 6.038631 8.324732 8.258671 1 0.01559787 -0.85968238 -0.03218098
6
energy=-373.424107 Lattice="12.718 0.0 0.0 0.0 12.718 0.0 0.0 0.0 12.718" Properties=species:S:1:pos:R:3:Z:I:1:force:R:3
C 6.267509 6.779506 6.037244 6 -0.60583976 -0.77086150 2.17180931
H 6.553837 6.589886 5.034626 1 0.33846900 -0.29124963 -1.00103865
H 6.086808 7.803231 6.323753 1 0.00082481 0.51092896 -0.01978105
C 6.087951 5.799063 6.958791 6 0.06429717 0.79097988 -0.93619281
H 5.757282 5.968819 7.990945 1 0.12539948 0.15866443 -0.25682254
H 6.234726 4.768671 6.664975 1 0.07931190 -0.40094326 0.03158808
6
energy=-373.421458 Lattice="12.718 0.0 0.0 0.0 12.718 0.0 0.0 0.0 12.718" Properties=species:S:1:pos:R:3:Z:I:1:force:R:3
C 6.031758 6.994878 6.496669 6 -0.49585097 -0.16149676 1.47269501
H 6.224666 6.658495 5.486360 1 0.12898051 -0.11926533 -0.19192682
H 5.972265 8.073818 6.686616 1 0.10281592 -0.13756697 -0.24357363
C 5.794730 6.152060 7.526499 6 -0.07620601 0.01598816 0.05101329
H 5.542044 6.454997 8.568331 1 0.24858112 0.26408231 -0.76321401
H 5.804945 5.059043 7.434373 1 0.09121509 0.14035045 -0.31655239
6
energy=-373.369438 Lattice="12.718 0.0 0.0 0.0 12.718 0.0 0.0 0.0 12.718" Properties=species:S:1:pos:R:3:Z:I:1:force:R:3
C 5.734847 6.081421 10.284338 6 -0.40573528 0.41229571 0.76176648
H 5.654015 6.949307 10.993260 1 0.20577530 -0.68988146 -0.54465877
H 5.414548 5.096256 10.758720 1 0.52971191 1.06166325 -0.94754012
C 6.098518 6.284044 9.001466 6 -0.63097899 -1.29550679 0.63642305
H 6.069508 5.409371 8.328601 1 0.24420972 0.45037481 -0.00071117
H 6.341551 7.257074 8.581726 1 0.05900943 0.05981367 0.08104380
6
energy=-373.320021 Lattice="12.718 0.0 0.0 0.0 12.718 0.0 0.0 0.0 12.718" Properties=species:S:1:pos:R:3:Z:I:1:force:R:3
C 6.155707 5.839263 6.404175 6 -0.25687087 -1.31464507 1.09360666
H 6.086059 4.758383 6.786902 1 0.00156837 1.50650915 -0.30482352
H 6.460506 5.849614 5.336500 1 -0.21809141 0.57817878 0.62079793
C 5.895491 6.897737 7.211954 6 0.44397584 -0.07510095 -0.51122823
H 6.022042 7.915841 6.799761 1 -0.15818312 -0.31681619 0.18051163
H 5.628883 6.872409 8.303403 1 0.18835658 -0.37974707 -1.07939307
6
energy=-373.433292 Lattice="12.718 0.0 0.0 0.0 12.718 0.0 0.0 0.0 12.718" Properties=species:S:1:pos:R:3:Z:I:1:force:R:3
C 6.012565 7.059463 6.694616 6 0.15884904 0.42263978 -0.25061795
H 6.286514 7.434478 5.705183 1 -0.00953417 -0.30721054 -0.12682850
H 5.798741 7.878770 7.372730 1 -0.12750572 -0.07457850 0.49267308
C 5.984312 5.761836 7.000188 6 0.07752961 0.23503911 -0.79680601
H 5.719493 5.409759 7.989652 1 -0.02813817 -0.22217330 0.14676844
H 6.209665 5.050636 6.188726 1 -0.06942189 -0.06225314 0.53845212
6