ITEM: TIMESTEP
92000
ITEM: NUMBER OF ATOMS
6
ITEM: BOX BOUNDS pp pp pp
0.0000000000000000e+00 1.0000000000000000e+01
0.0000000000000000e+00 1.0000000000000000e+01
0.0000000000000000e+00 1.0000000000000000e+01
ITEM: ATOMS id type x y z vx vy vz
2 1 5.61785 4.89963 4.73595 -9.44877 -6.44265 -6.72018
4 2 5.76461 4.59391 3.69224 10.3497 -39.1504 33.6128
6 2 3.53655 5.06484 4.48859 -16.6642 -4.62706 1.3008
3 2 6.40622 4.76376 5.44593 17.8708 -0.309042 4.0073
5 2 4.27485 5.39584 6.3042 40.3773 -1.86281 7.43911
1 1 4.38384 5.11558 5.26999 5.09049 10.2987 2.82964
ITEM: TIMESTEP
92100
ITEM: NUMBER OF ATOMS
6
ITEM: BOX BOUNDS pp pp pp
0.0000000000000000e+00 1.0000000000000000e+01
0.0000000000000000e+00 1.0000000000000000e+01
0.0000000000000000e+00 1.0000000000000000e+01
ITEM: ATOMS id type x y z vx vy vz
2 1 5.01409 4.39797 4.71566 -10.2818 -1.08867 -0.709895
4 2 4.6109 3.45707 5.16413 -3.45951 -33.5301 48.9491
6 2 4.49403 5.82259 6.23079 28.4893 -3.3384 -16.6569
3 2 5.39975 4.33838 3.68165 -25.5329 -2.82731 10.9045
5 2 5.34904 6.35989 4.55485 -5.03085 18.4939 11.4279
1 1 4.99838 5.60385 5.31542 10.7462 2.86795 -3.87421
ITEM: TIMESTEP
92200
ITEM: NUMBER OF ATOMS
6
ITEM: BOX BOUNDS pp pp pp
0.0000000000000000e+00 1.0000000000000000e+01
0.0000000000000000e+00 1.0000000000000000e+01
0.0000000000000000e+00 1.0000000000000000e+01
ITEM: ATOMS id type x y z vx vy vz
2 1 4.45467 4.70231 5.24411 -1.79304 5.58162 9.33762
4 2 4.78503 3.77701 5.81509 -2.10598 23.0853 -34.1913
6 2 6.48598 4.82645 4.85332 11.7674 0.595669 -17.8335
3 2 3.45551 5.19813 5.41775 -14.3419 30.2874 30.7602
5 2 5.54506 6.17618 4.1645 9.0871 -7.11944 -12.9492
1 1 5.52274 5.29952 4.735 1.42324 -9.51319 -6.46638
ITEM: TIMESTEP
92300
ITEM: NUMBER OF ATOMS
6
ITEM: BOX BOUNDS pp pp pp
0.0000000000000000e+00 1.0000000000000000e+01
0.0000000000000000e+00 1.0000000000000000e+01
0.0000000000000000e+00 1.0000000000000000e+01
ITEM: ATOMS id type x y z vx vy vz
2 1 4.86705 5.28311 5.59284 8.64028 8.15036 -4.94326
4 2 3.90208 5.28735 6.11674 16.8067 27.4865 43.3678
6 2 4.32724 4.18933 3.83529 -21.609 -2.08254 -9.16834
3 2 5.8061 5.75537 5.98915 -21.6457 -51.3491 -10.5365
5 2 6.10068 4.87269 3.91323 10.5317 -19.5352 12.7938
1 1 5.12173 4.70807 4.41952 -7.30458 -4.33365 1.8838
ITEM: TIMESTEP
92400
ITEM: NUMBER OF ATOMS
6
ITEM: BOX BOUNDS pp pp pp
0.0000000000000000e+00 1.0000000000000000e+01
0.0000000000000000e+00 1.0000000000000000e+01
0.0000000000000000e+00 1.0000000000000000e+01
ITEM: ATOMS id type x y z vx vy vz
2 1 5.56173 5.33678 5.15836 6.21336 -3.32209 -11.4377
4 2 5.86068 6.1541 4.54914 -10.7405 -30.8296 2.71777
6 2 3.70339 5.16286 4.21598 25.994 3.19707 8.29676
3 2 6.26438 5.00117 5.86559 30.8116 11.4278 15.6035
5 2 4.28018 3.70749 5.4067 -40.7558 22.7883 6.82382
1 1 4.42935 4.66104 4.83865 -6.65892 2.7696 8.63125
ITEM: TIMESTEP
92500
ITEM: NUMBER OF ATOMS
6
ITEM: BOX BOUNDS pp pp pp
0.0000000000000000e+00 1.0000000000000000e+01
0.0000000000000000e+00 1.0000000000000000e+01
0.0000000000000000e+00 1.0000000000000000e+01
ITEM: ATOMS id type x y z vx vy vz
2 1 5.47647 4.66776 4.66551 -0.660923 -1.51404 -5.32444
4 2 5.1371 3.75776 4.15852 -24.6463 -57.8925 3.23414
6 2 3.4908 5.02609 5.14464 -15.2978 24.4477 50.528
3 2 6.54731 4.81739 4.85513 -10.7954 -13.282 10.1465
5 2 4.68146 6.13683 5.98475 19.6769 33.8325 -21.5819
1 1 4.53576 5.35418 5.32263 3.2677 2.59614 1.77237
ITEM: TIMESTEP
92600
ITEM: NUMBER OF ATOMS
6
ITEM: BOX BOUNDS pp pp pp
0.0000000000000000e+00 1.0000000000000000e+01
0.0000000000000000e+00 1.0000000000000000e+01
0.0000000000000000e+00 1.0000000000000000e+01
ITEM: ATOMS id type x y z vx vy vz
2 1 4.77847 4.39264 4.84072 -8.42345 0.771951 10.4824
4 2 4.59909 3.51777 5.56422 -12.8225 7.02051 -8.74196
6 2 5.7293 5.92943 6.06989 49.5954 -10.1405 -1.35846
3 2 4.30993 4.37022 3.80755 -14.6742 -8.95732 -15.2734
5 2 5.25702 6.39268 4.33869 -20.4287 14.3004 0.0633882
1 1 5.23051 5.5897 5.17787 8.28329 -0.958514 -8.35837
ITEM: TIMESTEP
92700
ITEM: NUMBER OF ATOMS
6
ITEM: BOX BOUNDS pp pp pp
0.0000000000000000e+00 1.0000000000000000e+01
0.0000000000000000e+00 1.0000000000000000e+01
0.0000000000000000e+00 1.0000000000000000e+01
ITEM: ATOMS id type x y z vx vy vz
2 1 4.51421 4.93106 5.45751 1.25448 10.5468 4.00441
4 2 4.42404 3.93923 5.87086 -7.08529 14.5965 4.95998
6 2 5.94504 4.10296 4.12786 -48.9515 5.63188 -15.6087
3 2 3.95104 5.67122 6.06924 33.936 -31.1233 5.52575
5 2 5.83043 6.03344 4.21236 5.59088 -14.4791 -18.7627
1 1 5.47335 5.09015 4.51912 0.131042 -8.41736 -1.99991
ITEM: TIMESTEP
92800
ITEM: NUMBER OF ATOMS
6
ITEM: BOX BOUNDS pp pp pp
0.0000000000000000e+00 1.0000000000000000e+01
0.0000000000000000e+00 1.0000000000000000e+01
0.0000000000000000e+00 1.0000000000000000e+01
ITEM: ATOMS id type x y z vx vy vz
2 1 5.10553 5.41366 5.54426 6.29177 7.63395 -2.36784
4 2 4.3952 6.14967 5.89451 18.8184 12.053 6.81282
6 2 3.98909 4.65998 3.96778 -6.51648 -18.5764 -33.1215
3 2 6.06965 5.41968 5.98974 32.2802 -36.2905 -6.13536
5 2 5.57877 3.74192 4.23225 -43.1243 -5.03857 15.0621
1 1 4.89192 4.58872 4.44882 -6.4141 -3.61816 3.82654
ITEM: TIMESTEP
92900
ITEM: NUMBER OF ATOMS
6
ITEM: BOX BOUNDS pp pp pp
0.0000000000000000e+00 1.0000000000000000e+01
0.0000000000000000e+00 1.0000000000000000e+01
0.0000000000000000e+00 1.0000000000000000e+01
ITEM: ATOMS id type x y z vx vy vz
2 1 5.66212 5.12885 4.92601 4.21357 -5.53959 -5.87201
4 2 6.11603 5.43871 3.95176 0.852538 -24.423 -30.8699
6 2 3.49568 4.95938 4.31897 -4.64691 27.4577 2.85259
3 2 6.31916 4.92655 5.83731 15.3917 11.0581 -8.3585
5 2 3.94608 4.65079 6.00175 -44.1674 37.3142 40.9892
1 1 4.34841 4.87318 5.06492 -1.48028 1.2255 5.48485
ITEM: TIMESTEP
93000
ITEM: NUMBER OF ATOMS
6
ITEM: BOX BOUNDS pp pp pp
0.0000000000000000e+00 1.0000000000000000e+01
0.0000000000000000e+00 1.0000000000000000e+01
0.0000000000000000e+00 1.0000000000000000e+01
ITEM: ATOMS id type x y z vx vy vz
4 2 4.79486 3.52582 4.78012 21.0615 14.2026 26.8592
2 1 5.29685 4.51159 4.65843 -5.43231 -2.89918 -4.08243
3 2 6.15573 4.50868 3.98986 -41.9945 -40.6587 -7.63641
6 2 3.99288 5.22268 6.06847 -6.50345 13.1378 30.0787
1 1 4.70566 5.49719 5.32286 6.25953 3.23261 1.3057
5 2 5.02889 6.63775 5.38616 17.5792 9.34508 -16.2137
ITEM: TIMESTEP
93100
ITEM: NUMBER OF ATOMS
6
ITEM: BOX BOUNDS pp pp pp
0.0000000000000000e+00 1.0000000000000000e+01
0.0000000000000000e+00 1.0000000000000000e+01
0.0000000000000000e+00 1.0000000000000000e+01
ITEM: ATOMS id type x y z vx vy vz
4 2 4.63171 3.53409 5.47531 -19.9287 -1.59083 0.912828
2 1 4.56719 4.48069 5.06746 -0.160377 3.74713 6.37442
3 2 3.60819 4.65433 4.60639 -20.9078 35.6768 26.0931
6 2 6.56993 5.43149 5.27487 -4.60598 1.20441 -43.3098
1 1 5.43472 5.52391 4.95965 2.86551 -6.07386 -4.1997
5 2 5.1697 6.32486 4.3221 13.2078 -7.56475 -9.6104
ITEM: TIMESTEP
93200
ITEM: NUMBER OF ATOMS
6
ITEM: BOX BOUNDS pp pp pp
0.0000000000000000e+00 1.0000000000000000e+01
0.0000000000000000e+00 1.0000000000000000e+01
0.0000000000000000e+00 1.0000000000000000e+01
ITEM: ATOMS id type x y z vx vy vz
4 2 3.64761 4.56573 5.73386 -24.3386 13.6072 -9.58017
2 1 4.6653 5.09769 5.60099 4.96621 6.89384 0.401975
3 2 5.0833 5.78961 6.3307 20.9231 -10.8421 9.15573
6 2 5.10817 4.21193 3.6577 -46.6769 9.76031 4.25489
1 1 5.31949 4.90547 4.40306 0.671848 -5.33023 2.6494
5 2 6.3446 5.3947 4.23131 -17.0912 -31.1575 -40.1908
ITEM: TIMESTEP
93300
ITEM: NUMBER OF ATOMS
6
ITEM: BOX BOUNDS pp pp pp
0.0000000000000000e+00 1.0000000000000000e+01
0.0000000000000000e+00 1.0000000000000000e+01
0.0000000000000000e+00 1.0000000000000000e+01
ITEM: ATOMS id type x y z vx vy vz
4 2 5.38416 6.45548 5.03156 53.7935 -28.6161 -2.23703
2 1 5.3763 5.43333 5.37617 3.28279 -0.479202 -3.29672
3 2 6.07151 5.18325 6.26215 19.0528 4.04644 -20.5476
6 2 4.05856 5.02821 3.77732 -0.165145 -1.74756 -7.5143
1 1 4.62784 4.55117 4.6342 -9.04143 3.62264 1.13105
5 2 4.43888 3.51742 4.80721 -4.06069 -11.1402 56.1053
ITEM: TIMESTEP
93400
ITEM: NUMBER OF ATOMS
6
ITEM: BOX BOUNDS pp pp pp
0.0000000000000000e+00 1.0000000000000000e+01
0.0000000000000000e+00 1.0000000000000000e+01
0.0000000000000000e+00 1.0000000000000000e+01
ITEM: ATOMS id type x y z vx vy vz
4 2 6.15251 4.24592 4.02945 -1.27247 -34.9921 -0.515459
2 1 5.63484 4.86929 4.8128 -3.12656 -5.41353 -3.26985
3 2 6.32742 5.54229 5.1767 -13.031 1.28844 -30.9551
6 2 3.45628 4.5986 4.82334 -8.57208 10.3111 9.81176
1 1 4.3433 5.10844 5.18294 4.1928 5.7673 7.12958
5 2 4.32663 5.87816 6.02312 10.1701 19.177 -24.3341
ITEM: TIMESTEP
93500
ITEM: NUMBER OF ATOMS
6
ITEM: BOX BOUNDS pp pp pp
0.0000000000000000e+00 1.0000000000000000e+01
0.0000000000000000e+00 1.0000000000000000e+01
0.0000000000000000e+00 1.0000000000000000e+01
ITEM: ATOMS id type x y z vx vy vz
4 2 5.23189 3.61332 5.34927 1.15348 33.6985 25.5927
2 1 5.04235 4.39493 4.67043 -6.25841 -1.61524 1.8275
3 2 4.71988 4.12169 3.57627 -45.0842 -11.5061 -3.16733
6 2 5.18701 5.65485 6.37692 31.1118 13.0484 -20.0368
1 1 4.97013 5.60921 5.31196 5.28948 -2.43137 -3.08086
5 2 4.7149 6.56038 4.90909 24.3647 12.9789 12.5467
ITEM: TIMESTEP
93600
ITEM: NUMBER OF ATOMS
6
ITEM: BOX BOUNDS pp pp pp
0.0000000000000000e+00 1.0000000000000000e+01
0.0000000000000000e+00 1.0000000000000000e+01
0.0000000000000000e+00 1.0000000000000000e+01
ITEM: ATOMS id type x y z vx vy vz
4 2 4.28298 3.50618 5.00786 -30.7263 6.90478 23.7036
2 1 4.5094 4.62687 5.31024 -2.868 4.67614 4.19581
3 2 3.7896 5.15496 5.86942 43.6888 15.4881 15.5493
6 2 6.24892 4.87286 4.06127 -1.98318 -17.4862 -35.6859
1 1 5.49136 5.37224 4.70716 2.32066 -6.00189 -6.74652
5 2 5.67184 6.4762 4.8558 -4.45707 10.8911 26.8274
ITEM: TIMESTEP
93700
ITEM: NUMBER OF ATOMS
6
ITEM: BOX BOUNDS pp pp pp
0.0000000000000000e+00 1.0000000000000000e+01
0.0000000000000000e+00 1.0000000000000000e+01
0.0000000000000000e+00 1.0000000000000000e+01
ITEM: ATOMS id type x y z vx vy vz
4 2 4.13785 6.00674 5.75374 38.8811 13.7155 -14.1973
2 1 4.83061 5.29052 5.57897 3.3132 8.32201 2.4701
3 2 5.36539 4.97696 6.52581 -0.657084 -4.63712 -4.66271
6 2 4.60377 4.8461 3.42903 -33.613 10.0977 27.3695
1 1 5.16158 4.72639 4.40468 -0.151534 -8.2337 -2.18713
5 2 5.98836 3.96832 4.48805 -42.2857 -20.2284 -11.8814
ITEM: TIMESTEP
93800
ITEM: NUMBER OF ATOMS
6
ITEM: BOX BOUNDS pp pp pp
0.0000000000000000e+00 1.0000000000000000e+01
0.0000000000000000e+00 1.0000000000000000e+01
0.0000000000000000e+00 1.0000000000000000e+01
ITEM: ATOMS id type x y z vx vy vz
4 2 6.3013 5.42361 4.36899 1.83623 -40.7411 -38.7997
2 1 5.55278 5.28374 5.2116 0.931975 -2.93757 -3.32134
3 2 5.83884 5.6934 6.08738 15.5219 2.50578 9.37094
6 2 4.38891 4.4149 3.79638 -16.2134 -19.5249 39.4115
1 1 4.437 4.71839 4.81552 -0.0372215 4.92998 1.48189
5 2 3.59518 4.44225 5.42592 -11.8067 34.0184 11.9362
ITEM: TIMESTEP
93900
ITEM: NUMBER OF ATOMS
6
ITEM: BOX BOUNDS pp pp pp
0.0000000000000000e+00 1.0000000000000000e+01
0.0000000000000000e+00 1.0000000000000000e+01
0.0000000000000000e+00 1.0000000000000000e+01
ITEM: ATOMS id type x y z vx vy vz
4 2 5.98377 3.78563 4.96622 -7.1868 -20.8919 -15.8249
2 1 5.52619 4.70562 4.69165 -9.49827 -4.46269 4.41598
3 2 5.90814 5.33393 3.78314 -27.7155 7.08587 -33.8936
6 2 3.97097 4.84973 6.20635 5.80425 23.3009 45.1993
1 1 4.47379 5.27461 5.30386 10.8886 4.26626 -1.91035
5 2 4.13972 6.26592 5.09959 12.5302 -7.15414 -25.3381
ITEM: TIMESTEP
94000
ITEM: NUMBER OF ATOMS
6
ITEM: BOX BOUNDS pp pp pp
0.0000000000000000e+00 1.0000000000000000e+01
0.0000000000000000e+00 1.0000000000000000e+01
0.0000000000000000e+00 1.0000000000000000e+01
ITEM: ATOMS id type x y z vx vy vz
2 1 4.75721 4.38604 4.87894 -6.40285 4.20391 3.54963
3 2 3.69631 4.19648 4.65917 16.2473 -10.4533 33.3148
4 2 5.48836 3.46702 4.79595 -8.12734 9.88334 9.93853
5 2 4.45783 6.42022 5.34402 10.83 16.282 16.0032
6 2 6.30933 5.87735 5.30354 -5.72838 -52.4912 -47.8965
1 1 5.24703 5.61719 5.11259 5.29329 -1.1174 -4.50296
ITEM: TIMESTEP
94100
ITEM: NUMBER OF ATOMS
6
ITEM: BOX BOUNDS pp pp pp
0.0000000000000000e+00 1.0000000000000000e+01
0.0000000000000000e+00 1.0000000000000000e+01
0.0000000000000000e+00 1.0000000000000000e+01
ITEM: ATOMS id type x y z vx vy vz
2 1 4.50615 4.82368 5.41221 -0.60078 2.06542 5.39702
3 2 4.47979 4.84614 6.51673 21.8579 29.3483 5.73782
4 2 3.5508 4.67328 5.0169 23.2789 41.9188 18.944
5 2 6.509 5.36218 4.8711 -28.6329 -50.0481 -7.75077
6 2 5.16424 5.24101 3.54609 -1.43329 12.2508 -21.7402
1 1 5.51891 5.16599 4.59206 -0.663949 -4.87422 -4.99343
ITEM: TIMESTEP
94200
ITEM: NUMBER OF ATOMS
6
ITEM: BOX BOUNDS pp pp pp
0.0000000000000000e+00 1.0000000000000000e+01
0.0000000000000000e+00 1.0000000000000000e+01
0.0000000000000000e+00 1.0000000000000000e+01
ITEM: ATOMS id type x y z vx vy vz
2 1 5.14164 5.40834 5.51636 7.05857 0.220786 -4.41405
3 2 4.97515 4.89863 6.41843 -9.60009 -7.87302 -13.313
4 2 5.33827 6.4973 5.50225 45.6848 26.0882 -17.7406
5 2 4.61469 3.54918 4.73326 -37.3252 -28.8502 4.29934
6 2 5.01485 4.75702 3.45663 -17.3079 -15.0793 10.3156
1 1 4.86335 4.61662 4.47451 -5.50199 1.93716 5.79359
ITEM: TIMESTEP
94300
ITEM: NUMBER OF ATOMS
6
ITEM: BOX BOUNDS pp pp pp
0.0000000000000000e+00 1.0000000000000000e+01
0.0000000000000000e+00 1.0000000000000000e+01
0.0000000000000000e+00 1.0000000000000000e+01
ITEM: ATOMS id type x y z vx vy vz
2 1 5.6477 5.18202 5.03539 -0.538339 -5.43635 -5.05063
3 2 6.02603 6.26391 5.22432 37.2524 0.800512 -31.819
4 2 6.30433 4.37925 4.69113 -25.7901 -11.6198 13.2778
5 2 3.52856 5.52376 5.05294 16.7416 -1.83379 18.5
6 2 4.06215 3.70206 4.81501 0.0605194 -25.2121 35.2465
1 1 4.35912 4.82895 4.98294 -1.83362 8.614 2.0962
ITEM: TIMESTEP
94400
ITEM: NUMBER OF ATOMS
6
ITEM: BOX BOUNDS pp pp pp
0.0000000000000000e+00 1.0000000000000000e+01
0.0000000000000000e+00 1.0000000000000000e+01
0.0000000000000000e+00 1.0000000000000000e+01
ITEM: ATOMS id type x y z vx vy vz
2 1 5.27453 4.51025 4.63736 -6.17198 -7.25182 -1.81328
3 2 5.03007 4.38767 3.60821 -43.4791 -7.47028 38.8775
4 2 6.11554 3.87847 4.97951 8.13495 -8.12158 -27.5096
5 2 3.863 6.12436 4.92287 11.8636 3.23146 -24.8038
6 2 5.0144 5.51317 6.41892 -1.60976 31.0222 -37.2359
1 1 4.72374 5.4978 5.3687 8.27756 5.68572 6.06568
ITEM: TIMESTEP
94500
ITEM: NUMBER OF ATOMS
6
ITEM: BOX BOUNDS pp pp pp
0.0000000000000000e+00 1.0000000000000000e+01
0.0000000000000000e+00 1.0000000000000000e+01
0.0000000000000000e+00 1.0000000000000000e+01
ITEM: ATOMS id type x y z vx vy vz
2 1 4.62252 4.46015 5.02494 -4.04164 0.591372 3.70759
3 2 3.97007 4.36058 5.90496 7.34266 7.20113 52.5237
4 2 4.66005 3.67585 4.32705 -23.6482 14.1728 -20.2694
5 2 5.25426 6.19265 5.78102 58.1439 -12.8459 -41.1943
6 2 6.16466 5.75789 4.2263 21.1723 -20.3874 -11.8355
1 1 5.37356 5.54091 4.95513 -1.24623 0.403866 -1.96411
ITEM: TIMESTEP
94600
ITEM: NUMBER OF ATOMS
6
ITEM: BOX BOUNDS pp pp pp
0.0000000000000000e+00 1.0000000000000000e+01
0.0000000000000000e+00 1.0000000000000000e+01
0.0000000000000000e+00 1.0000000000000000e+01
ITEM: ATOMS id type x y z vx vy vz
2 1 4.62674 5.09665 5.5396 9.79467 2.4403 2.66012
3 2 4.6627 4.52991 6.49952 -7.73986 18.8342 4.67193
4 2 3.7849 5.84907 5.29103 12.9178 36.4423 -0.0420593
5 2 6.31229 4.32258 4.37049 9.10215 -44.6228 -10.1268
6 2 5.14238 5.44035 3.61914 10.5735 -20.37 11.4277
1 1 5.38166 4.89141 4.479 -11.8804 -1.62491 -3.15782
ITEM: TIMESTEP
94700
ITEM: NUMBER OF ATOMS
6
ITEM: BOX BOUNDS pp pp pp
0.0000000000000000e+00 1.0000000000000000e+01
0.0000000000000000e+00 1.0000000000000000e+01
0.0000000000000000e+00 1.0000000000000000e+01
ITEM: ATOMS id type x y z vx vy vz
2 1 5.36363 5.40141 5.39841 9.70576 -5.50885 -8.56307
3 2 4.86149 5.65689 6.35527 4.14251 27.432 -22.147
4 2 6.41342 5.74208 5.24452 -28.4547 -12.6583 27.553
5 2 3.72612 4.15597 4.93991 11.4995 36.5545 21.8156
6 2 5.10079 4.25986 3.61899 -2.21985 -29.2641 -18.4092
1 1 4.62803 4.6141 4.58842 -8.44423 3.65722 7.82353
ITEM: TIMESTEP
94800
ITEM: NUMBER OF ATOMS
6
ITEM: BOX BOUNDS pp pp pp
0.0000000000000000e+00 1.0000000000000000e+01
0.0000000000000000e+00 1.0000000000000000e+01
0.0000000000000000e+00 1.0000000000000000e+01
ITEM: ATOMS id type x y z vx vy vz
2 1 5.64665 4.97173 4.78334 -0.254312 -3.85329 -6.51249
3 2 6.05254 5.66115 4.07789 0.987956 -37.4608 -9.46838
4 2 6.35662 4.28178 5.21633 -4.8334 -36.9971 13.064
5 2 3.73121 5.80539 4.66648 -47.2283 11.9781 7.694
6 2 3.91912 4.27421 5.85979 27.3978 41.8471 19.4476
1 1 4.34856 5.02634 5.23187 2.2412 5.58479 3.93301
ITEM: TIMESTEP
94900
ITEM: NUMBER OF ATOMS
6
ITEM: BOX BOUNDS pp pp pp
0.0000000000000000e+00 1.0000000000000000e+01
0.0000000000000000e+00 1.0000000000000000e+01
0.0000000000000000e+00 1.0000000000000000e+01
ITEM: ATOMS id type x y z vx vy vz
2 1 5.04058 4.37951 4.71712 -5.3708 -5.99264 5.47132
3 2 4.15987 3.77022 4.35153 -39.8333 -12.8266 -2.43131
4 2 6.1031 4.13347 4.57569 -25.95 0.112564 -19.1593
5 2 4.10426 6.21152 5.49334 23.1799 -11.2275 18.2136
6 2 5.91204 6.03211 5.63995 28.0901 34.7812 -13.2633
1 1 4.93619 5.60809 5.27795 6.58876 5.08297 -4.07486
ITEM: TIMESTEP
95000
ITEM: NUMBER OF ATOMS
6
ITEM: BOX BOUNDS pp pp pp
0.0000000000000000e+00 1.0000000000000000e+01
0.0000000000000000e+00 1.0000000000000000e+01
0.0000000000000000e+00 1.0000000000000000e+01
ITEM: ATOMS id type x y z vx vy vz
4 2 3.61805 4.21479 4.61186 -34.8938 -6.99746 34.9546
6 2 5.61991 5.92134 3.86433 -8.62979 -20.3406 -5.32386
1 1 5.50546 5.37199 4.77673 2.57938 -2.7052 -6.34833
2 1 4.48172 4.62562 5.19664 -1.61894 7.15551 6.83583
3 2 4.64675 4.30001 6.23734 -5.46958 6.07372 -35.5992
5 2 6.27046 5.59189 5.60549 37.5485 -31.7659 0.159412
ITEM: TIMESTEP
95100
ITEM: NUMBER OF ATOMS
6
ITEM: BOX BOUNDS pp pp pp
0.0000000000000000e+00 1.0000000000000000e+01
0.0000000000000000e+00 1.0000000000000000e+01
0.0000000000000000e+00 1.0000000000000000e+01
ITEM: ATOMS id type x y z vx vy vz
4 2 4.86393 6.32323 5.68739 20.1106 -24.1446 -34.7813
6 2 5.48678 5.47684 3.63023 17.355 -8.48528 7.78621
1 1 5.16279 4.71293 4.39572 -10.0434 -5.70115 -0.931993
2 1 4.84177 5.26676 5.59622 10.3194 4.31275 1.79085
3 2 4.47945 4.79439 6.5048 -16.6127 27.7644 39.2704
5 2 5.11784 3.64715 4.27531 -24.141 21.4098 -22.5096
ITEM: TIMESTEP
95200
ITEM: NUMBER OF ATOMS
6
ITEM: BOX BOUNDS pp pp pp
0.0000000000000000e+00 1.0000000000000000e+01
0.0000000000000000e+00 1.0000000000000000e+01
0.0000000000000000e+00 1.0000000000000000e+01
ITEM: ATOMS id type x y z vx vy vz
4 2 6.4862 4.84279 5.51362 46.013 -27.5855 16.0994
6 2 4.59692 3.63064 4.55539 -55.3713 -5.30012 19.1222
1 1 4.46738 4.65761 4.75803 -3.78818 0.404253 5.39368
2 1 5.54196 5.35551 5.21459 5.76946 1.17904 -5.40559
3 2 5.35802 6.3391 5.63705 -5.20629 -6.97294 -39.4965
5 2 3.44993 5.03071 4.62199 -9.0445 20.9918 4.41675
ITEM: TIMESTEP
95300
ITEM: NUMBER OF ATOMS
6
ITEM: BOX BOUNDS pp pp pp
0.0000000000000000e+00 1.0000000000000000e+01
0.0000000000000000e+00 1.0000000000000000e+01
0.0000000000000000e+00 1.0000000000000000e+01
ITEM: ATOMS id type x y z vx vy vz
4 2 6.47906 4.3394 5.14725 -16.6856 10.266 -24.8589
6 2 4.30214 5.56261 6.40226 36.6619 20.4898 23.564
1 1 4.50206 5.27361 5.33921 0.902335 10.9204 0.240716
2 1 5.51266 4.72103 4.67891 0.177813 -12.0568 1.32131
3 2 5.40729 4.67348 3.52928 -12.1358 -15.8885 -27.7653
5 2 3.63849 5.488 4.70698 -20.7117 -1.32566 10.4471
ITEM: TIMESTEP
95400
ITEM: NUMBER OF ATOMS
6
ITEM: BOX BOUNDS pp pp pp
0.0000000000000000e+00 1.0000000000000000e+01
0.0000000000000000e+00 1.0000000000000000e+01
0.0000000000000000e+00 1.0000000000000000e+01
ITEM: ATOMS id type x y z vx vy vz
4 2 5.24018 3.99576 3.86836 -41.3421 5.8485 -23.2616
6 2 5.73725 6.21778 4.4508 -17.2654 -1.30384 -15.2763
1 1 5.15873 5.62265 5.18935 10.0634 0.0147846 -5.17553
2 1 4.82415 4.39013 4.82364 -7.38433 -3.35864 12.0433
3 2 4.34508 3.51077 5.39994 9.37868 35.6442 -30.9362
5 2 4.88384 6.12307 6.12793 17.3051 -0.343226 -12.3625
ITEM: TIMESTEP
95500
ITEM: NUMBER OF ATOMS
6
ITEM: BOX BOUNDS pp pp pp
0.0000000000000000e+00 1.0000000000000000e+01
0.0000000000000000e+00 1.0000000000000000e+01
0.0000000000000000e+00 1.0000000000000000e+01
ITEM: ATOMS id type x y z vx vy vz
4 2 3.45294 5.28011 5.38084 44.5004 -7.07559 31.6113
6 2 5.5011 5.93299 3.88859 35.7578 -5.14014 -13.9446
1 1 5.535 5.14801 4.59668 -5.02251 -8.61777 -6.12011
2 1 4.46809 4.86685 5.41005 -2.83872 12.2031 6.61539
3 2 4.56522 4.05689 6.04249 19.3217 -12.6773 -17.4949
5 2 6.44633 4.55251 4.60961 -5.9047 -17.8304 -6.07355
ITEM: TIMESTEP
95600
ITEM: NUMBER OF ATOMS
6
ITEM: BOX BOUNDS pp pp pp
0.0000000000000000e+00 1.0000000000000000e+01
0.0000000000000000e+00 1.0000000000000000e+01
0.0000000000000000e+00 1.0000000000000000e+01
ITEM: ATOMS id type x y z vx vy vz
4 2 5.95444 5.82501 5.79191 50.0213 11.1957 -15.6049
6 2 5.70183 4.52496 3.58158 5.94774 -17.3719 -2.83827
1 1 4.95561 4.61081 4.45415 -9.07219 -4.48138 2.18411
2 1 5.05819 5.3735 5.57192 4.16477 0.435694 2.06618
3 2 4.19567 5.55734 6.2268 21.4417 40.7476 -9.0534
5 2 3.98601 4.27926 4.09088 -18.9336 13.6374 -23.1502
ITEM: TIMESTEP
95700
ITEM: NUMBER OF ATOMS
6
ITEM: BOX BOUNDS pp pp pp
0.0000000000000000e+00 1.0000000000000000e+01
0.0000000000000000e+00 1.0000000000000000e+01
0.0000000000000000e+00 1.0000000000000000e+01
ITEM: ATOMS id type x y z vx vy vz
4 2 6.36564 4.68952 5.69618 5.66607 8.5159 1.14689
6 2 4.18167 3.94059 5.61767 -2.29656 15.6733 -2.26586
1 1 4.36591 4.79861 5.00186 -8.19306 4.52328 12.7863
2 1 5.62546 5.21544 4.98469 2.88302 -7.5652 -8.27496
3 2 6.10859 6.05456 4.46685 36.048 3.6259 -40.1835
5 2 3.44928 5.1475 4.38135 23.8574 8.43273 -12.4552
ITEM: TIMESTEP
95800
ITEM: NUMBER OF ATOMS
6
ITEM: BOX BOUNDS pp pp pp
0.0000000000000000e+00 1.0000000000000000e+01
0.0000000000000000e+00 1.0000000000000000e+01
0.0000000000000000e+00 1.0000000000000000e+01
ITEM: ATOMS id type x y z vx vy vz
4 2 6.39464 4.4127 4.47075 -10.3326 -13.7693 -13.518
6 2 5.10788 6.4167 5.72691 8.84561 -1.31151 -9.95246
1 1 4.66436 5.44303 5.36795 5.67063 5.73259 -3.7818
2 1 5.34164 4.56122 4.66708 -3.92455 -5.62587 -1.40464
3 2 4.79097 3.69628 4.12147 -23.6619 13.5657 45.984
5 2 3.63734 5.42328 5.2652 4.34245 0.243427 39.2885
ITEM: TIMESTEP
95900
ITEM: NUMBER OF ATOMS
6
ITEM: BOX BOUNDS pp pp pp
0.0000000000000000e+00 1.0000000000000000e+01
0.0000000000000000e+00 1.0000000000000000e+01
0.0000000000000000e+00 1.0000000000000000e+01
ITEM: ATOMS id type x y z vx vy vz
4 2 4.00828 4.29927 4.09653 1.61042 48.7057 11.8658
6 2 5.4416 6.27005 4.28885 -28.6649 8.13334 -9.88461
1 1 5.3763 5.54411 5.02353 8.57588 -9.65588 -7.41433
2 1 4.62421 4.44109 4.97343 -7.44308 4.22804 9.14147
3 2 4.58401 3.71918 5.708 -3.02497 -11.2743 -0.944837
5 2 5.96245 5.8875 5.94457 16.581 19.1139 -21.6171
ITEM: TIMESTEP
96000
ITEM: NUMBER OF ATOMS
6
ITEM: BOX BOUNDS pp pp pp
0.0000000000000000e+00 1.0000000000000000e+01
0.0000000000000000e+00 1.0000000000000000e+01
0.0000000000000000e+00 1.0000000000000000e+01
ITEM: ATOMS id type x y z vx vy vz
1 1 5.39169 4.91988 4.46704 -7.4594 -1.98448 -5.0876
5 2 5.67458 4.05179 3.93541 -26.6217 -43.995 24.6494
6 2 5.8419 5.8976 4.01746 19.2238 -16.0099 3.48825
3 2 4.28605 4.16537 6.14348 -1.88169 -7.00796 11.248
4 2 4.4099 6.02853 6.03328 25.6906 16.6678 44.0527
2 1 4.59069 5.06806 5.52223 6.08219 6.20944 -1.91456
ITEM: TIMESTEP
96100
ITEM: NUMBER OF ATOMS
6
ITEM: BOX BOUNDS pp pp pp
0.0000000000000000e+00 1.0000000000000000e+01
0.0000000000000000e+00 1.0000000000000000e+01
0.0000000000000000e+00 1.0000000000000000e+01
ITEM: ATOMS id type x y z vx vy vz
1 1 4.74426 4.54953 4.56853 -11.0919 3.3497 7.82773
5 2 3.76559 4.96414 4.15051 6.96669 -5.4163 -5.60933
6 2 5.13774 3.6938 4.13433 -6.68561 -12.4127 21.8875
3 2 4.74292 6.36373 5.68347 24.6862 -16.0812 -16.222
4 2 6.28351 5.41562 5.99041 -14.7907 -20.9458 -1.52172
2 1 5.26184 5.41374 5.43509 10.2379 1.25383 -7.70474
ITEM: TIMESTEP
96200
ITEM: NUMBER OF ATOMS
6
ITEM: BOX BOUNDS pp pp pp
0.0000000000000000e+00 1.0000000000000000e+01
0.0000000000000000e+00 1.0000000000000000e+01
0.0000000000000000e+00 1.0000000000000000e+01
ITEM: ATOMS id type x y z vx vy vz
1 1 4.35423 5.01102 5.16852 8.5783 7.31343 8.24881
5 2 3.50015 5.07981 4.54656 -23.0141 8.72766 0.0271275
6 2 4.09009 4.92547 6.25844 -0.984053 22.6593 -2.61153
3 2 6.07133 4.87658 3.83214 -12.8154 -26.6884 1.6173
4 2 6.30947 4.85528 5.59185 -46.6686 23.5059 -12.3139
2 1 5.6484 5.01101 4.81241 -1.57246 -9.68035 -7.13427
ITEM: TIMESTEP
96300
ITEM: NUMBER OF ATOMS
6
ITEM: BOX BOUNDS pp pp pp
0.0000000000000000e+00 1.0000000000000000e+01
0.0000000000000000e+00 1.0000000000000000e+01
0.0000000000000000e+00 1.0000000000000000e+01
ITEM: ATOMS id type x y z vx vy vz
1 1 4.86606 5.56712 5.33725 7.3131 0.288714 -0.535926
5 2 4.16335 5.66412 6.22527 34.9012 -13.4658 2.66383
6 2 5.23889 6.53863 4.94521 3.47851 19.4186 -16.8515
3 2 4.72563 3.5936 5.10744 -2.06326 18.2552 44.5265
4 2 5.76794 4.3324 3.77749 8.1061 -40.1393 -32.1691
2 1 5.14289 4.42205 4.65825 -11.041 1.04825 0.68952
ITEM: TIMESTEP
96400
ITEM: NUMBER OF ATOMS
6
ITEM: BOX BOUNDS pp pp pp
0.0000000000000000e+00 1.0000000000000000e+01
0.0000000000000000e+00 1.0000000000000000e+01
0.0000000000000000e+00 1.0000000000000000e+01
ITEM: ATOMS id type x y z vx vy vz
1 1 5.49914 5.41484 4.82007 8.14608 -3.66576 -8.24142
5 2 6.49662 4.99968 5.05697 7.80235 -19.3673 -33.8451
6 2 5.42735 6.32922 4.21627 -33.7079 -27.8335 12.5876
3 2 4.68304 3.5813 5.71167 -7.47472 -39.4104 11.3992
4 2 3.45657 4.90641 5.09729 -2.80981 22.654 2.19143
2 1 4.49572 4.60052 5.17318 -5.109 9.03306 8.88482
ITEM: TIMESTEP
96500
ITEM: NUMBER OF ATOMS
6
ITEM: BOX BOUNDS pp pp pp
0.0000000000000000e+00 1.0000000000000000e+01
0.0000000000000000e+00 1.0000000000000000e+01
0.0000000000000000e+00 1.0000000000000000e+01
ITEM: ATOMS id type x y z vx vy vz
1 1 5.20186 4.78174 4.41404 -2.98079 -7.02089 -0.432797
5 2 4.66826 4.22253 3.71306 -29.2413 20.6002 9.63447
6 2 6.23968 5.08202 4.20803 6.32707 -34.7827 -13.0246
3 2 3.83278 4.99353 6.1036 29.1354 8.58851 -12.8577
4 2 5.5554 5.73988 6.26607 39.0437 -19.6862 -10.4467
2 1 4.77349 5.21504 5.56171 -0.817849 9.14241 2.67301
ITEM: TIMESTEP
96600
ITEM: NUMBER OF ATOMS
6
ITEM: BOX BOUNDS pp pp pp
0.0000000000000000e+00 1.0000000000000000e+01
0.0000000000000000e+00 1.0000000000000000e+01
0.0000000000000000e+00 1.0000000000000000e+01
ITEM: ATOMS id type x y z vx vy vz
1 1 4.54523 4.61473 4.76671 -4.94679 7.74885 7.77749
5 2 3.7878 5.01078 4.00627 14.265 0.76895 -10.3423
6 2 4.16827 3.67099 5.09693 -31.4866 11.1514 24.7401
3 2 5.62102 6.34514 4.73803 -18.8246 -15.3018 -32.382
4 2 6.14742 5.09016 5.99038 -3.18421 15.0948 -28.8701
2 1 5.47809 5.37541 5.24757 8.23901 -8.73183 -3.84547
ITEM: TIMESTEP
96700
ITEM: NUMBER OF ATOMS
6
ITEM: BOX BOUNDS pp pp pp
0.0000000000000000e+00 1.0000000000000000e+01
0.0000000000000000e+00 1.0000000000000000e+01
0.0000000000000000e+00 1.0000000000000000e+01
ITEM: ATOMS id type x y z vx vy vz
1 1 4.44833 5.24806 5.26868 6.07595 5.96681 7.17358
5 2 3.52108 4.76593 5.13298 -6.96503 5.29374 10.7424
6 2 4.43756 6.13175 5.96817 45.4577 13.6151 -39.5643
3 2 5.6077 3.91045 4.05589 31.7463 -32.282 9.42142
4 2 6.54879 5.11783 5.0775 9.13817 9.71696 -0.0232435
2 1 5.5422 4.75812 4.71178 -12.7373 -5.65999 -5.54355
ITEM: TIMESTEP
96800
ITEM: NUMBER OF ATOMS
6
ITEM: BOX BOUNDS pp pp pp
0.0000000000000000e+00 1.0000000000000000e+01
0.0000000000000000e+00 1.0000000000000000e+01
0.0000000000000000e+00 1.0000000000000000e+01
ITEM: ATOMS id type x y z vx vy vz
1 1 5.12844 5.6029 5.25921 9.91287 -1.68963 -2.75685
5 2 5.5957 5.84616 6.21984 19.8378 -11.1023 -22.1952
6 2 4.93697 6.36454 4.53258 -0.977692 44.5343 -10.1784
3 2 4.79466 3.44094 5.38074 11.0305 22.8906 21.5457
4 2 4.55018 4.19049 3.72022 -19.0757 -9.93632 17.6563
2 1 4.88204 4.41032 4.75324 -10.8205 -2.20312 2.1838
ITEM: TIMESTEP
96900
ITEM: NUMBER OF ATOMS
6
ITEM: BOX BOUNDS pp pp pp
0.0000000000000000e+00 1.0000000000000000e+01
0.0000000000000000e+00 1.0000000000000000e+01
0.0000000000000000e+00 1.0000000000000000e+01
ITEM: ATOMS id type x y z vx vy vz
1 1 5.47903 5.21569 4.62891 -0.07163 -7.10556 -1.06449
5 2 6.02301 4.41092 4.05552 6.54889 -13.2075 -53.4284
6 2 5.88889 6.21943 4.34261 -13.4875 -29.5507 -17.6308
3 2 4.37896 3.76113 5.47455 -20.6371 15.4946 -12.6725
4 2 3.90429 5.46239 5.95222 34.0987 4.4893 13.607
2 1 4.5048 4.79653 5.38594 -0.475781 9.01678 6.94937
ITEM: TIMESTEP
97000
ITEM: NUMBER OF ATOMS
6
ITEM: BOX BOUNDS pp pp pp
0.0000000000000000e+00 1.0000000000000000e+01
0.0000000000000000e+00 1.0000000000000000e+01
0.0000000000000000e+00 1.0000000000000000e+01
ITEM: ATOMS id type x y z vx vy vz
5 2 4.25275 4.63897 3.63414 16.9086 0.417349 39.7386
1 1 5.01963 4.65191 4.44523 -9.36983 -4.56654 3.09358
6 2 5.82092 3.89102 4.36249 -2.81802 -17.2499 0.0111252
3 2 4.21598 6.10249 5.81749 25.4717 45.9265 30.8901
2 1 4.96845 5.35899 5.55378 4.14592 5.02723 -10.7151
4 2 5.85479 5.23725 6.19945 22.6863 -34.5835 20.1789
ITEM: TIMESTEP
97100
ITEM: NUMBER OF ATOMS
6
ITEM: BOX BOUNDS pp pp pp
0.0000000000000000e+00 1.0000000000000000e+01
0.0000000000000000e+00 1.0000000000000000e+01
0.0000000000000000e+00 1.0000000000000000e+01
ITEM: ATOMS id type x y z vx vy vz
5 2 3.84068 4.91632 4.036 -11.8321 18.2087 -4.64745
1 1 4.36739 4.76387 4.95809 -2.6214 2.23317 8.59286
6 2 3.85682 4.52621 5.85283 0.752652 42.3679 -28.617
3 2 6.17213 5.4971 4.04116 -14.3741 -42.0126 -19.0375
2 1 5.62441 5.21284 5.04878 2.87704 -5.10233 -1.8935
4 2 6.2304 5.3375 5.98987 22.4073 15.6251 -27.5281
ITEM: TIMESTEP
97200
ITEM: NUMBER OF ATOMS
6
ITEM: BOX BOUNDS pp pp pp
0.0000000000000000e+00 1.0000000000000000e+01
0.0000000000000000e+00 1.0000000000000000e+01
0.0000000000000000e+00 1.0000000000000000e+01
ITEM: ATOMS id type x y z vx vy vz
5 2 3.90985 4.95463 5.98047 -2.51193 35.7323 11.7854
1 1 4.59139 5.42101 5.32109 6.56555 1.89142 5.4211
6 2 4.68699 6.49892 5.42304 13.4889 49.9249 -20.7643
3 2 5.3103 3.54664 4.81744 15.9608 22.0991 17.8001
2 1 5.40545 4.58248 4.66744 -5.41086 -10.7478 -6.16085
4 2 6.13291 4.95788 3.91754 -40.6972 -2.22259 -0.00619032
ITEM: TIMESTEP
97300
ITEM: NUMBER OF ATOMS
6
ITEM: BOX BOUNDS pp pp pp
0.0000000000000000e+00 1.0000000000000000e+01
0.0000000000000000e+00 1.0000000000000000e+01