LAMMPS data file via write_data, version 2 Aug 2023, timestep = 132000, units = metal

6 atoms
2 atom types

0 10 xlo xhi
0 10 ylo yhi
0 10 zlo zhi

Masses

1 12.0107
2 1.00794

Atoms # atomic

1 1 5.406173385087543 4.988449142934143 4.472867338289587 0 0 0
6 2 5.761806911022766 4.136729607970985 3.825745810078047 0 0 0
5 2 5.971320638992754 5.834807343295129 4.223814167588094 0 0 0
4 2 3.9983503180928106 4.190601841909749 5.772973551986176 0 0 0
3 2 4.454612170640763 5.872655784653961 6.198827546207658 0 0 0
2 1 4.57840974969374 5.008597101367693 5.525488523483422 0 0 0

Velocities

1 -8.762097685452572 -4.795349158008602 -5.361076790671919
6 -0.4315736313569012 -30.967646663840448 -25.27156858905909
5 53.82127866662482 -20.700199462084807 -9.994241067884934
4 0.7189971602236271 0.6954394893504414 -1.0362146963593801
3 13.042964328191518 -5.891852646691767 18.504395848139783
2 3.126718335716159 9.567407531123996 6.854656821436013
