6
energy=-373.366014 Lattice="12.718 0.0 0.0 0.0 12.718 0.0 0.0 0.0 12.718" Properties=species:S:1:pos:R:3:Z:I:1:force:R:3
C 6.252532 5.782935 6.716616 6 0.29923497 -1.48792880 1.36447925
H 6.019224 5.875972 7.809207 1 -0.06158825 0.39747226 -0.89175846
H 6.503507 4.704979 6.515922 1 -0.23791720 1.01845994 -0.46722120
C 6.345183 6.809871 5.876914 6 0.08707253 0.43592160 0.77822258
H 6.690555 6.703386 4.860242 1 -0.04413096 -0.03212390 -0.42044252
H 6.174029 7.829289 6.267652 1 -0.04018689 -0.34365904 -0.37390912
6
energy=-373.298331 Lattice="12.718 0.0 0.0 0.0 12.718 0.0 0.0 0.0 12.718" Properties=species:S:1:pos:R:3:Z:I:1:force:R:3
C 6.277946 7.020181 6.206543 6 -0.03148472 1.13428102 -1.14700954
H 6.453391 7.441893 5.160267 1 -0.31888644 -0.76709175 1.10343496
H 6.009548 7.868953 6.907496 1 0.54899417 -1.30575573 -0.23052065
C 6.343180 5.699181 6.460210 6 -0.44215653 0.74459355 -0.80904550
H 6.204290 5.338686 7.460758 1 -0.14197796 -0.34851225 0.59548643
H 6.391005 4.939440 5.650088 1 0.38665408 0.54310377 0.47605500
6
energy=-373.331406 Lattice="12.718 0.0 0.0 0.0 12.718 0.0 0.0 0.0 12.718" Properties=species:S:1:pos:R:3:Z:I:1:force:R:3
C 6.427442 7.571234 4.189499 6 0.73393581 0.36298089 0.57966436
H 6.700009 6.709033 3.538734 1 -0.51810800 0.78786062 0.16926973
H 6.667925 8.618497 3.940503 1 0.05251893 -0.53453016 -0.65664736
C 6.055130 7.401449 5.463563 6 -0.07304098 0.70848701 0.19579067
H 5.978183 8.250038 6.194174 1 -0.11490577 -0.67962841 -0.75327206
H 5.812761 6.424388 5.829687 1 -0.08026578 -0.65365048 0.46004216
6
energy=-373.335936 Lattice="12.718 0.0 0.0 0.0 12.718 0.0 0.0 0.0 12.718" Properties=species:S:1:pos:R:3:Z:I:1:force:R:3
C 6.117243 6.860096 6.294996 6 0.08138936 0.21441782 0.77277235
H 5.928471 7.518086 7.203689 1 0.08280346 -1.22226835 -0.94385625
H 6.167768 5.758449 6.296775 1 -0.37543532 0.36818069 0.73749370
C 6.425204 7.418391 5.133713 6 0.55983909 1.39200807 -0.13131199
H 6.720399 6.838024 4.275203 1 -0.05808692 -0.31710106 -0.41680800
H 6.551933 8.513417 5.028555 1 -0.29204976 -0.43193741 -0.02443167
6
energy=-373.319735 Lattice="12.718 0.0 0.0 0.0 12.718 0.0 0.0 0.0 12.718" Properties=species:S:1:pos:R:3:Z:I:1:force:R:3
C 6.413720 5.868444 5.987802 6 -0.35987037 0.83971518 2.34980485
H 6.442294 4.953330 6.625368 1 0.09618195 0.49475311 -0.60790950
H 6.631210 5.780958 4.936406 1 -0.16960706 -0.05738244 -0.43439025
C 6.166477 7.072119 6.583157 6 0.73976090 -0.72416921 -1.02162394
H 6.152626 7.978930 5.996190 1 -0.01665665 0.27266260 -0.59090266
H 6.118949 7.347309 7.634819 1 -0.28924366 -0.83395436 0.31265871
6
energy=-373.311920 Lattice="12.718 0.0 0.0 0.0 12.718 0.0 0.0 0.0 12.718" Properties=species:S:1:pos:R:3:Z:I:1:force:R:3
C 6.211752 6.838848 5.361195 6 1.13586997 -1.33013597 -0.47865028
H 6.203836 6.081736 6.205755 1 -0.31088568 0.96364141 -0.91607494
H 6.516118 6.442490 4.345381 1 -0.68372881 0.14913592 1.03110052
C 6.201734 8.158382 5.522776 6 0.61529114 0.80527163 -0.77293998
H 6.427166 8.856778 4.664947 1 -0.43679423 -0.73408339 0.77401522
H 6.144060 8.630353 6.493088 1 -0.32207924 0.14353399 0.35380667
6
energy=-373.373759 Lattice="12.718 0.0 0.0 0.0 12.718 0.0 0.0 0.0 12.718" Properties=species:S:1:pos:R:3:Z:I:1:force:R:3
C 6.119309 6.758319 6.777928 6 -0.15641677 -0.20123165 0.65720941
H 5.797586 7.792424 7.110719 1 0.47831912 -1.09456465 -0.45901475
H 6.126138 5.961944 7.592131 1 -0.05749196 0.97821906 -0.98935966
C 6.453959 6.453354 5.507506 6 -0.16168291 -1.03448050 0.76135716
H 6.690837 5.388336 5.209596 1 -0.11321244 1.18146748 0.30957287
H 6.455297 7.202602 4.727499 1 0.00612077 0.17126439 -0.27423303
6
energy=-373.363726 Lattice="12.718 0.0 0.0 0.0 12.718 0.0 0.0 0.0 12.718" Properties=species:S:1:pos:R:3:Z:I:1:force:R:3
C 6.215086 6.835635 5.430738 6 -0.14842526 -1.04381412 -0.36961383
H 6.082712 6.237359 6.377130 1 0.01292443 0.37967045 -1.13129957
H 6.314590 6.335038 4.418688 1 0.01126401 0.14139175 1.35900126
C 6.224197 8.162911 5.456604 6 0.64258907 0.78888958 -0.80655410
H 6.482916 8.744168 4.530184 1 -0.51440458 -0.40378227 0.79935346
H 6.105962 8.728580 6.375586 1 -0.00541320 0.13724199 0.14483292
6
energy=-373.372039 Lattice="12.718 0.0 0.0 0.0 12.718 0.0 0.0 0.0 12.718" Properties=species:S:1:pos:R:3:Z:I:1:force:R:3
C 6.410726 6.434921 5.548280 6 0.32597755 -0.74326326 -0.02530687
H 6.575531 5.392317 5.753565 1 -0.12314616 -0.54507529 0.00451486
H 6.567228 6.803974 4.577061 1 0.35153793 0.11938155 -1.60262117
C 6.110126 7.313780 6.466207 6 -0.43645124 0.78857333 1.54503356
H 6.063771 8.369397 6.194554 1 -0.21782144 0.05553330 0.26433685
H 5.914965 7.009569 7.505513 1 0.10023967 0.32113770 -0.19584467
6
energy=-373.369995 Lattice="12.718 0.0 0.0 0.0 12.718 0.0 0.0 0.0 12.718" Properties=species:S:1:pos:R:3:Z:I:1:force:R:3
C 6.139865 6.831332 5.222575 6 0.47040731 -0.08175137 -0.09097649
H 6.028222 6.391222 6.221533 1 -0.22058693 -0.27587134 -0.37333576
H 6.290491 6.192163 4.312604 1 -0.32163341 0.35091624 0.96607265
C 6.277427 8.153832 5.113733 6 0.58824157 0.70060914 -0.33002292
H 6.553475 8.580650 4.145314 1 -0.24823556 0.03241084 -0.10230530
H 6.287738 8.916867 5.917310 1 -0.26857043 -0.72993414 -0.07373363
6
energy=-373.397645 Lattice="12.718 0.0 0.0 0.0 12.718 0.0 0.0 0.0 12.718" Properties=species:S:1:pos:R:3:Z:I:1:force:R:3
C 6.425843 6.552856 5.441765 6 0.45301225 -0.39812892 -0.30852026
H 6.713009 5.523729 5.159329 1 -0.32013600 0.27110657 0.21331121
H 6.535854 7.263789 4.609397 1 -0.16715371 0.05963884 0.38218807
C 6.092611 6.883418 6.697596 6 0.55874380 -1.66915879 -0.84709939
H 5.935417 7.903195 6.928251 1 -0.41922124 1.04110058 0.65663605
H 6.058703 6.076156 7.453902 1 -0.10140284 0.68214038 -0.10209241
6
energy=-373.324666 Lattice="12.718 0.0 0.0 0.0 12.718 0.0 0.0 0.0 12.718" Properties=species:S:1:pos:R:3:Z:I:1:force:R:3
C 6.420360 7.038432 5.224258 6 0.16893548 -2.29420470 -1.90661834
H 6.419617 5.897889 5.214385 1 0.19769021 1.38548055 0.13838767
H 6.593971 7.503108 4.230316 1 0.13021516 -0.20569868 0.59573840
C 6.069043 7.747488 6.267205 6 -1.05898724 0.26916847 1.11596344
H 5.933965 8.810957 6.093410 1 0.08068179 0.31490945 0.56560916
H 5.709140 7.272349 7.209398 1 0.48354617 0.52600489 -0.50183239
6
energy=-373.308594 Lattice="12.718 0.0 0.0 0.0 12.718 0.0 0.0 0.0 12.718" Properties=species:S:1:pos:R:3:Z:I:1:force:R:3
C 6.168518 7.962629 5.232727 6 -0.03258413 1.74631097 1.82303274
H 6.336026 9.078487 5.091536 1 -0.28721351 -1.33043834 -0.30627826
H 5.953400 7.749137 6.298563 1 -0.05119276 -0.22099110 -0.49296979
C 6.308775 7.043490 4.295708 6 0.87216870 0.13701778 -0.38679961
H 6.324024 5.964944 4.503325 1 -0.29293576 0.30598515 -0.24021320
H 6.659575 7.451920 3.345590 1 -0.20743212 -0.63658400 -0.38450155
6
energy=-373.384929 Lattice="12.718 0.0 0.0 0.0 12.718 0.0 0.0 0.0 12.718" Properties=species:S:1:pos:R:3:Z:I:1:force:R:3
C 6.460797 5.776337 6.001983 6 -0.52974019 -0.06363999 -0.30333537
H 6.558036 4.810165 6.460414 1 0.35396197 -0.48977853 0.22025011
H 6.371708 5.839262 4.936752 1 0.30507138 -0.29454425 -0.81685960
C 6.187591 6.869579 6.684829 6 -0.56752515 1.04103990 0.09256029
H 5.913836 7.810990 6.174774 1 0.30826829 -0.30995596 0.23200983
H 6.094920 6.861022 7.756569 1 0.12836550 0.11072515 0.59115617
6
energy=-373.302684 Lattice="12.718 0.0 0.0 0.0 12.718 0.0 0.0 0.0 12.718" Properties=species:S:1:pos:R:3:Z:I:1:force:R:3
C 6.380054 6.785133 5.808837 6 -0.30486929 -0.50554661 2.20562602
H 6.781378 6.560177 4.858271 1 0.30611370 -1.00869231 -1.11195972
H 6.245812 7.836948 5.890191 1 -0.42694176 1.06674067 0.49617904
C 6.207317 5.914539 6.839962 6 0.77549720 0.50148632 -1.28872524
H 5.957876 6.149654 7.886067 1 -0.17659738 0.20629467 -0.54063448
H 6.489625 4.884210 6.626597 1 -0.17503003 -0.25560846 0.24481599
6
energy=-373.329003 Lattice="12.718 0.0 0.0 0.0 12.718 0.0 0.0 0.0 12.718" Properties=species:S:1:pos:R:3:Z:I:1:force:R:3
C 6.161462 7.918118 5.901622 6 0.06880380 -1.83846863 0.70586037
H 6.251469 8.730269 5.232971 1 -0.02955280 0.83622619 -0.96575178
H 5.965812 8.152705 6.935217 1 -0.10036823 0.27157297 0.45664367
C 6.325454 6.629540 5.565684 6 0.57768101 0.33244490 -0.68177323
H 6.386574 5.780652 6.217666 1 -0.43032173 -0.14235488 1.10642053
H 6.585977 6.258443 4.579195 1 -0.08561625 0.53056911 -0.61427144
6
energy=-373.269494 Lattice="12.718 0.0 0.0 0.0 12.718 0.0 0.0 0.0 12.718" Properties=species:S:1:pos:R:3:Z:I:1:force:R:3
C 6.205157 6.942390 6.512627 6 -0.04266594 0.29553926 -1.35885162
H 6.144979 7.791792 5.733169 1 0.04743380 -1.14400494 1.35905011
H 6.046385 7.185141 7.596547 1 0.27934079 -0.13424973 -1.01391577
C 6.417618 5.669857 6.101019 6 -0.50456084 0.15680758 0.92235924
H 6.432364 4.873745 6.840860 1 0.06841608 -0.05609688 0.44921987
H 6.471087 5.205092 5.113797 1 0.15267067 0.89312423 -0.35032745
6
energy=-373.290335 Lattice="12.718 0.0 0.0 0.0 12.718 0.0 0.0 0.0 12.718" Properties=species:S:1:pos:R:3:Z:I:1:force:R:3
C 6.457645 7.465642 4.187326 6 -0.99065704 -0.33689446 0.76232081
H 6.441909 6.443879 3.717546 1 0.31995293 1.17650165 -0.05025996
H 6.565174 8.421395 3.611140 1 0.28763569 -1.06453260 0.29972245
C 6.068335 7.509164 5.483732 6 -0.39786924 0.97793727 -0.06037777
H 5.903141 8.448382 6.064287 1 0.37989619 -0.32552966 -0.66746657
H 5.720078 6.662741 6.077888 1 0.40010405 -0.42737936 -0.28441152
6
energy=-373.402578 Lattice="12.718 0.0 0.0 0.0 12.718 0.0 0.0 0.0 12.718" Properties=species:S:1:pos:R:3:Z:I:1:force:R:3
C 6.245823 6.380773 6.132085 6 0.17477858 0.89310623 -0.37343603
H 6.090678 6.260733 7.189676 1 -0.14723176 -0.38813812 0.47709733
H 6.333899 5.523817 5.481058 1 0.12379048 -0.44161042 0.02161888
C 6.335641 7.618096 5.626016 6 -0.38245650 -0.77513468 -1.18016496
H 6.464716 7.730916 4.517116 1 -0.02739564 0.24762312 0.98906193
H 6.114938 8.476189 6.243531 1 0.25979730 0.46311926 0.05690370
6
energy=-373.411338 Lattice="12.718 0.0 0.0 0.0 12.718 0.0 0.0 0.0 12.718" Properties=species:S:1:pos:R:3:Z:I:1:force:R:3
C 6.178953 6.874355 6.624639 6 0.01943087 0.92280507 -1.38900965
H 6.052572 7.773572 5.943347 1 0.07728587 -0.71117124 1.15535329
H 6.125422 6.995556 7.707161 1 -0.08493285 0.00798431 -0.08007192
C 6.430102 5.721270 6.000174 6 -0.03989481 0.17189122 -0.17177244
H 6.562068 4.789863 6.528967 1 0.09776832 -0.37676921 0.22347582
H 6.510674 5.679635 4.905199 1 -0.06669549 -0.02005410 0.26064011
6
energy=-373.223316 Lattice="12.718 0.0 0.0 0.0 12.718 0.0 0.0 0.0 12.718" Properties=species:S:1:pos:R:3:Z:I:1:force:R:3
C 6.239215 6.094100 6.500487 6 -0.50854503 -0.17358610 -0.69300690
H 5.752981 6.153776 7.479660 1 0.68077718 -0.37396157 0.11743265
H 6.428561 5.160318 5.949447 1 -0.21945975 -0.14716696 0.77403527
C 6.343062 7.181746 5.747994 6 -0.88407188 2.15047068 0.60903307
H 6.439379 7.161150 4.684766 1 0.77604382 -0.31286337 -0.83145011
H 6.121394 8.234708 6.096955 1 0.15701944 -1.13175928 0.03438184
6
energy=-373.379680 Lattice="12.718 0.0 0.0 0.0 12.718 0.0 0.0 0.0 12.718" Properties=species:S:1:pos:R:3:Z:I:1:force:R:3
C 6.389317 7.277389 4.254643 6 1.04926795 -0.48297693 -2.34812026
H 6.464246 6.230324 3.910895 1 -0.19315838 0.32430376 0.34760928
H 6.710969 8.026822 3.497163 1 -0.34518216 -0.46894230 0.27652029
C 6.092877 7.692410 5.456306 6 -0.44694084 0.05214304 1.70942024
H 6.115495 8.770158 5.605284 1 -0.12504466 0.04899652 0.51805657
H 5.846415 7.013127 6.302806 1 0.06015512 0.53618852 -0.51569681
6
energy=-373.346778 Lattice="12.718 0.0 0.0 0.0 12.718 0.0 0.0 0.0 12.718" Properties=species:S:1:pos:R:3:Z:I:1:force:R:3
C 6.246137 6.400706 6.175352 6 -0.27451071 0.54674496 -0.10879065
H 6.035349 6.286618 7.215414 1 -0.12637135 -0.04568237 0.87877541
H 6.231388 5.506444 5.591182 1 0.40152741 -0.71768334 -0.41252146
C 6.347010 7.591488 5.597751 6 -0.30864779 -0.06044976 -1.86281288
H 6.475067 7.676172 4.492150 1 0.06338288 -0.23052476 0.65106498
H 6.115447 8.544253 6.027748 1 0.24568862 0.50874095 0.85795563
6
energy=-373.329248 Lattice="12.718 0.0 0.0 0.0 12.718 0.0 0.0 0.0 12.718" Properties=species:S:1:pos:R:3:Z:I:1:force:R:3
C 6.046288 7.090337 5.238198 6 0.71824744 2.18667904 -0.11118384
H 5.919117 7.318754 6.303563 1 -0.02899127 0.36424485 -0.20384183
H 5.960695 6.052695 5.054572 1 -0.32207152 -1.15297039 -0.70565879
C 6.425422 8.008878 4.300361 6 0.23712530 -1.69410983 1.23332410
H 6.667266 7.637775 3.305691 1 -0.16445867 0.18953466 -0.23353090
H 6.753885 9.018621 4.546796 1 -0.44022923 0.10917118 0.03068408
6
energy=-373.392405 Lattice="12.718 0.0 0.0 0.0 12.718 0.0 0.0 0.0 12.718" Properties=species:S:1:pos:R:3:Z:I:1:force:R:3
C 6.139521 7.627571 6.138734 6 0.72042773 -0.55136935 -1.96269671
H 6.154443 8.638178 5.732909 1 -0.16472041 0.10151905 -0.11092673
H 6.014866 7.577513 7.191714 1 -0.27594796 -0.36851854 1.01933617
C 6.415160 6.566498 5.332006 6 -0.10010032 1.34640181 1.52540574
H 6.510204 5.588920 5.798641 1 -0.06275810 -0.28824967 -0.33505560
H 6.657500 6.727728 4.285209 1 -0.11695237 -0.24098710 -0.13642335
6
energy=-373.366749 Lattice="12.718 0.0 0.0 0.0 12.718 0.0 0.0 0.0 12.718" Properties=species:S:1:pos:R:3:Z:I:1:force:R:3
C 6.151403 7.139503 6.481728 6 0.56400993 1.75258858 -0.21023360
H 6.209922 8.119936 5.933354 1 -0.15241305 -0.91461198 0.18406386
H 6.065266 7.332177 7.559734 1 -0.32486066 -0.66430411 -0.12769702
C 6.400712 5.988373 5.860958 6 0.29681505 0.44652175 -0.40394271
H 6.433351 5.051303 6.395453 1 -0.00402378 -0.41177841 0.09167018
H 6.680341 5.999825 4.789597 1 -0.37944522 -0.20855364 0.46178126
6
energy=-373.335245 Lattice="12.718 0.0 0.0 0.0 12.718 0.0 0.0 0.0 12.718" Properties=species:S:1:pos:R:3:Z:I:1:force:R:3
C 6.077192 6.872491 5.637645 6 1.18514725 1.32225348 -1.72974946
H 6.015271 6.722415 6.682291 1 -0.47232896 0.01240404 1.20487123
H 6.200957 5.996826 5.032006 1 -0.21801633 -0.74113799 -0.31737566
C 6.336055 8.076294 5.063706 6 -0.56084645 -1.48418167 1.11761101
H 6.563371 8.137891 3.999504 1 -0.09851394 0.33054434 0.07728382
H 6.289416 8.932261 5.728349 1 0.16592523 0.55111893 -0.34752186
6
energy=-373.312234 Lattice="12.718 0.0 0.0 0.0 12.718 0.0 0.0 0.0 12.718" Properties=species:S:1:pos:R:3:Z:I:1:force:R:3
C 6.096045 6.884674 5.423173 6 0.49592039 1.01396565 -1.42410061
H 5.972882 6.607602 6.431938 1 -0.49883139 0.08899931 1.40685621
H 6.151806 6.064614 4.748978 1 0.00533144 -0.93166972 -0.65358466
C 6.317397 8.117187 4.932096 6 0.70254416 -0.91715429 0.32666866
H 6.706090 8.225097 3.899160 1 -0.64179769 0.23183602 0.46509181
H 6.365992 8.944730 5.628532 1 -0.06175074 0.51111048 -0.12312816
6
energy=-373.367609 Lattice="12.718 0.0 0.0 0.0 12.718 0.0 0.0 0.0 12.718" Properties=species:S:1:pos:R:3:Z:I:1:force:R:3
C 6.439099 7.133303 5.064366 6 0.72779344 0.09862656 0.60531628
H 6.759696 6.145718 4.670655 1 -0.56213148 0.57399302 -0.00442436
H 6.677759 8.045603 4.497531 1 -0.15968105 -0.43603473 -0.21300525
C 6.061536 7.293410 6.341526 6 0.20729843 -0.24066263 0.66209142
H 5.985548 8.279132 6.830620 1 -0.23422715 -0.17111012 -0.47188519
H 5.921166 6.463012 7.062229 1 0.02137977 0.17019224 -0.56390915
6
energy=-373.368917 Lattice="12.718 0.0 0.0 0.0 12.718 0.0 0.0 0.0 12.718" Properties=species:S:1:pos:R:3:Z:I:1:force:R:3
C 6.099353 7.129532 6.349830 6 -0.09331363 -0.16054442 0.06680965
H 5.896485 8.079422 6.773037 1 -0.27466343 0.81456669 1.01560396
H 5.946202 6.215560 6.892394 1 -0.04450069 -0.32433307 0.49440292
C 6.477755 7.130224 5.095101 6 0.11843075 -1.47688951 -1.72359269
H 6.622721 6.199453 4.511055 1 0.10050244 0.30293736 0.40459165
H 6.543652 8.012516 4.496235 1 0.19310027 0.83615369 -0.25458208
6
energy=-373.385787 Lattice="12.718 0.0 0.0 0.0 12.718 0.0 0.0 0.0 12.718" Properties=species:S:1:pos:R:3:Z:I:1:force:R:3
C 6.048598 6.975383 5.586255 6 0.43625841 0.92386436 0.57323352
H 5.823244 7.100224 6.668538 1 0.15236265 0.09645860 -0.59290658
H 6.081150 5.925694 5.275904 1 -0.18578496 0.24928817 -0.33149668
C 6.388259 8.022859 4.792050 6 -0.52210709 -2.61383214 -0.38084236
H 6.551141 7.789294 3.723891 1 0.18127473 0.39960834 0.37514633
H 6.458661 9.030418 5.117688 1 -0.06330832 0.94199425 0.36022004
6
energy=-373.366109 Lattice="12.718 0.0 0.0 0.0 12.718 0.0 0.0 0.0 12.718" Properties=species:S:1:pos:R:3:Z:I:1:force:R:3
C 6.445135 7.675214 4.181610 6 -0.31658787 -0.09063865 0.27803312
H 6.346371 6.805320 3.556064 1 0.38630750 -0.25949031 -0.65122490
H 6.717287 8.637389 3.763850 1 0.15574623 0.08019328 -0.18171439
C 6.076750 7.530991 5.448257 6 -0.80071923 1.06535535 0.51751921
H 5.903534 8.381780 6.120663 1 0.53724936 -0.00945910 -0.07440829
H 5.669538 6.619620 5.841789 1 0.03921244 -0.78061370 0.09952747
6
energy=-373.404482 Lattice="12.718 0.0 0.0 0.0 12.718 0.0 0.0 0.0 12.718" Properties=species:S:1:pos:R:3:Z:I:1:force:R:3
C 6.334166 7.784514 5.360543 6 0.36441145 0.07945486 -1.19312282
H 6.550666 7.684713 4.292366 1 -0.05287992 -0.03232136 -0.00530522
H 6.357288 8.810581 5.698937 1 -0.26911242 0.21752782 0.47224411
C 6.157599 6.702743 6.099903 6 0.59443690 -1.05620993 0.10038314
H 6.031354 6.764588 7.167236 1 -0.24500162 0.03667938 0.54229438
H 6.316001 5.670523 5.706185 1 -0.38834330 0.75927765 0.07947903
6
energy=-373.405596 Lattice="12.718 0.0 0.0 0.0 12.718 0.0 0.0 0.0 12.718" Properties=species:S:1:pos:R:3:Z:I:1:force:R:3
C 6.210178 6.713453 5.902442 6 0.35117746 -0.41096028 0.43624864
H 6.140842 6.340722 6.935433 1 -0.29280052 0.24393667 -0.21932451
H 6.385408 5.930821 5.157520 1 -0.10575418 0.11872026 -0.03306492
C 6.249149 8.007556 5.577520 6 0.22377869 -0.46721297 0.91798064
H 6.510631 8.238806 4.566942 1 -0.12296104 0.63413322 -0.71851483
H 6.168265 8.796893 6.339034 1 -0.05362039 -0.12779986 -0.37541733
6
energy=-373.389588 Lattice="12.718 0.0 0.0 0.0 12.718 0.0 0.0 0.0 12.718" Properties=species:S:1:pos:R:3:Z:I:1:force:R:3
C 6.258577 6.910257 4.570986 6 0.40176704 -1.48962316 0.45425100
H 6.192236 5.947706 5.102885 1 -0.24415162 0.24215027 -0.15080096
H 6.543764 6.838742 3.526515 1 -0.16674130 0.05831626 -0.25724317
C 6.208948 8.069795 5.196889 6 0.37329308 1.24879444 -0.12715091
H 6.438528 8.939207 4.561732 1 -0.26623792 0.15614835 0.49528635
H 6.061842 8.239101 6.275142 1 -0.09844967 -0.22252091 -0.41727389
6
energy=-373.383503 Lattice="12.718 0.0 0.0 0.0 12.718 0.0 0.0 0.0 12.718" Properties=species:S:1:pos:R:3:Z:I:1:force:R:3
C 6.386478 7.227345 4.531138 6 0.03440550 0.59375453 -1.68593628
H 6.377409 6.142293 4.447959 1 0.10285551 -0.04525350 -0.33911435
H 6.538126 7.867238 3.615578 1 0.18321231 -0.82806653 0.79880993
C 6.074345 7.775927 5.686377 6 -0.61674433 0.57652299 1.05169353
H 6.007171 8.864100 5.874705 1 0.07077584 -0.50987738 -0.16001838
H 5.756163 7.106274 6.487839 1 0.22621096 0.21406557 0.32983266
6
energy=-373.271373 Lattice="12.718 0.0 0.0 0.0 12.718 0.0 0.0 0.0 12.718" Properties=species:S:1:pos:R:3:Z:I:1:force:R:3
C 6.406286 6.617077 5.354392 6 -0.72164695 3.05722382 1.62118866
H 6.474561 5.678047 5.824080 1 -0.04903097 -1.23995395 0.61109561
H 6.595495 6.700015 4.331430 1 0.33652679 -0.12358530 -1.83310428
C 6.120100 7.756579 6.048946 6 0.71794508 -1.23133201 0.89172246
H 6.163410 8.791454 5.728779 1 -0.13495782 -0.00532219 -0.91895612
H 6.004717 7.757186 7.150729 1 -0.14821649 -0.45966267 -0.38122391
6
energy=-373.360959 Lattice="12.718 0.0 0.0 0.0 12.718 0.0 0.0 0.0 12.718" Properties=species:S:1:pos:R:3:Z:I:1:force:R:3
C 6.204088 8.188394 5.528934 6 0.02599130 1.43324448 1.74931865
H 6.399959 8.911716 4.711478 1 -0.26658914 -0.58295126 0.25661942
H 6.037035 8.670351 6.576072 1 0.28448814 -0.68370824 -1.79101375
C 6.240653 6.862113 5.448363 6 -0.10830471 -0.46793494 0.34557194
H 6.118689 6.243815 6.357182 1 -0.05018026 0.25293297 -0.40204935
H 6.377390 6.308552 4.522047 1 0.11503587 0.05399989 -0.16739231
6
energy=-373.310930 Lattice="12.718 0.0 0.0 0.0 12.718 0.0 0.0 0.0 12.718" Properties=species:S:1:pos:R:3:Z:I:1:force:R:3
C 6.136771 6.410316 6.936370 6 0.63934742 -1.11054972 0.88024351
H 5.870868 7.412202 7.342115 1 -0.15371865 -0.84512067 -0.19473498
H 6.295310 5.495960 7.623629 1 -0.36658507 1.73841048 -0.56667874
C 6.456423 6.191321 5.659674 6 0.31127340 -0.27897929 -0.27126186
H 6.905073 5.245726 5.329196 1 -0.35967496 -0.06037469 0.19803422
H 6.371273 6.901200 4.848304 1 -0.07335003 0.55806965 -0.03087023
6
energy=-373.340253 Lattice="12.718 0.0 0.0 0.0 12.718 0.0 0.0 0.0 12.718" Properties=species:S:1:pos:R:3:Z:I:1:force:R:3
C 6.319568 7.309248 5.646490 6 -0.06432133 -1.32620321 1.31162710
H 6.688090 7.124282 4.673257 1 0.18565126 0.26116565 -1.40274707
H 6.174284 8.325863 5.997603 1 -0.10603083 0.06437173 0.03069282
C 6.191342 6.215763 6.425157 6 0.48263806 0.66275219 0.78268139
H 6.022136 6.274208 7.506586 1 -0.42223612 0.27188767 -0.11744859
H 6.451263 5.195519 6.145678 1 -0.07568973 0.05408062 -0.59611841
6
energy=-373.329906 Lattice="12.718 0.0 0.0 0.0 12.718 0.0 0.0 0.0 12.718" Properties=species:S:1:pos:R:3:Z:I:1:force:R:3
C 6.101160 7.004045 5.860492 6 -0.22405792 1.04605613 -0.25533849
H 5.884183 7.220654 6.879317 1 -0.25894216 -0.32051755 1.00881110
H 5.975446 6.053323 5.416072 1 0.09582251 -1.39492834 0.04323622
C 6.355103 8.014863 5.045802 6 0.01165379 1.19992082 0.66519063
H 6.575179 7.804896 4.033149 1 0.16298646 0.05667795 -1.32646444
H 6.342568 9.075703 5.369844 1 0.21292915 -0.58068509 -0.13964340
6
energy=-373.405424 Lattice="12.718 0.0 0.0 0.0 12.718 0.0 0.0 0.0 12.718" Properties=species:S:1:pos:R:3:Z:I:1:force:R:3
C 6.418380 6.720541 5.623767 6 0.44205625 -1.19735126 -0.26388690
H 6.810409 5.930330 4.971996 1 -0.12312456 0.46953314 -0.43122933
H 6.286812 7.723302 5.262117 1 0.02027471 0.46926112 -0.17832876
C 6.164495 6.321668 6.858872 6 -0.31210386 0.19403615 0.67330864
H 5.819469 6.979484 7.639164 1 -0.25375315 0.47939847 0.27595824
H 6.262356 5.295705 7.182557 1 0.22849153 -0.41723995 -0.07742780
6
energy=-373.375129 Lattice="12.718 0.0 0.0 0.0 12.718 0.0 0.0 0.0 12.718" Properties=species:S:1:pos:R:3:Z:I:1:force:R:3
C 6.407948 6.743478 5.797759 6 -0.15968002 -1.09552213 -0.42352938
H 6.648755 6.223071 4.884813 1 0.50523653 0.26553601 -0.65093334
H 6.179044 7.784372 5.772754 1 -0.10141158 0.80980706 0.00304522
C 6.219510 5.962969 6.849381 6 -0.74519827 0.72944614 1.19710495
H 5.773658 6.380835 7.766180 1 0.38909252 -0.19108658 -0.03470683
H 6.397023 4.903012 6.841549 1 0.11125377 -0.52202790 -0.08922917
6
energy=-373.304388 Lattice="12.718 0.0 0.0 0.0 12.718 0.0 0.0 0.0 12.718" Properties=species:S:1:pos:R:3:Z:I:1:force:R:3
C 6.235159 6.053729 6.414954 6 0.18809639 -0.42681423 0.81698044
H 5.993708 5.870063 7.488515 1 0.05274416 0.70098247 -0.53910518
H 6.504196 5.063380 5.970828 1 -0.30146258 0.95797778 -0.36990488
C 6.303104 7.254883 5.800001 6 0.01460388 -0.30935741 1.19496064
H 6.572388 7.233950 4.756668 1 0.12660790 0.40305516 -0.49413039
H 6.178681 8.258858 6.317443 1 -0.08073990 -1.32726045 -0.60829670
6
energy=-373.360791 Lattice="12.718 0.0 0.0 0.0 12.718 0.0 0.0 0.0 12.718" Properties=species:S:1:pos:R:3:Z:I:1:force:R:3
C 6.281234 7.194774 6.021100 6 -0.51873895 -0.28747628 1.42072629
H 6.424640 7.589008 5.031210 1 0.37117963 -0.40237536 -0.75732258
H 6.020341 8.035496 6.691917 1 0.11328083 -0.61366363 0.19862300
C 6.310466 5.888122 6.390365 6 -0.39716939 1.49350861 -0.64166399
H 6.028439 5.498582 7.373268 1 0.22432994 0.30595018 -0.02179680
H 6.498031 5.161493 5.616376 1 0.20521583 -0.48942578 -0.20188779
6
energy=-373.356120 Lattice="12.718 0.0 0.0 0.0 12.718 0.0 0.0 0.0 12.718" Properties=species:S:1:pos:R:3:Z:I:1:force:R:3
C 6.160921 8.066304 5.680729 6 -0.70012269 0.95132479 0.76619135
H 6.202472 9.059885 5.153160 1 -0.00694353 -1.00921579 0.40575791
H 5.843222 8.090313 6.766009 1 0.68493363 0.16209120 -1.01668588
C 6.296516 6.884011 5.086737 6 -0.46956348 -1.08893290 0.33935398
H 6.190827 5.939957 5.680488 1 0.09076926 0.73882399 -0.40923044
H 6.369120 6.723296 4.011985 1 0.40085995 0.23242584 -0.08494674
6
energy=-373.268940 Lattice="12.718 0.0 0.0 0.0 12.718 0.0 0.0 0.0 12.718" Properties=species:S:1:pos:R:3:Z:I:1:force:R:3
C 6.220536 8.101178 5.641269 6 0.49300116 -1.36746996 -0.99500838
H 6.394744 8.529128 4.678438 1 0.15438971 0.18290275 -1.04704806
H 6.159335 8.892141 6.347051 1 -0.36865481 0.16085810 1.40539787
C 6.230369 6.755215 5.769899 6 0.00287398 1.69088617 -1.50676729
H 6.025241 6.349980 6.717125 1 -0.10433133 -1.04838143 1.24454543
H 6.380264 6.113860 4.865559 1 -0.17733888 0.38862715 0.89855132
6
energy=-373.384714 Lattice="12.718 0.0 0.0 0.0 12.718 0.0 0.0 0.0 12.718" Properties=species:S:1:pos:R:3:Z:I:1:force:R:3
C 6.424895 6.780323 5.229466 6 0.64402992 -0.26615410 -0.94281546
H 6.560619 5.699402 5.390943 1 -0.18052500 0.37194273 0.01713230
H 6.662765 7.155835 4.232876 1 -0.04077978 -0.15535233 -0.16984771
C 6.106629 7.632462 6.187451 6 -0.47517209 -1.93862088 1.79787294
H 5.990562 8.676895 6.055886 1 -0.07945126 1.07063280 -0.09915312
H 5.890883 7.156295 7.183314 1 0.13260371 0.91753379 -0.59431143
6
energy=-373.317946 Lattice="12.718 0.0 0.0 0.0 12.718 0.0 0.0 0.0 12.718" Properties=species:S:1:pos:R:3:Z:I:1:force:R:3
C 6.153657 6.513991 6.986076 6 -0.15026103 0.78611381 -1.94761307
H 5.758321 7.442874 7.329540 1 -0.04919398 0.99955821 0.23965321
H 6.115770 5.749543 7.701146 1 0.22076125 -1.38623646 0.96029435
C 6.470448 6.309239 5.697941 6 -0.32225459 -0.00371730 -0.39654255
H 6.699495 5.315543 5.341383 1 0.35119186 -0.52636741 0.11368861
H 6.428169 7.005935 4.829939 1 -0.05062917 0.13179587 1.02079193
6
energy=-373.359190 Lattice="12.718 0.0 0.0 0.0 12.718 0.0 0.0 0.0 12.718" Properties=species:S:1:pos:R:3:Z:I:1:force:R:3
C 6.310691 7.128200 5.902323 6 -0.11627411 1.76481161 0.49411444
H 6.604514 7.306963 4.832656 1 -0.36860441 -0.22105847 1.02175198
H 6.080894 8.023092 6.578746 1 0.30634613 -0.83917062 -1.29305910
C 6.257206 5.949679 6.505962 6 0.50937961 -0.86124407 -0.19692247
H 6.055042 5.832544 7.565452 1 -0.23151978 0.18642774 0.19393434
H 6.527269 5.016439 6.010383 1 -0.09834220 -0.03891059 -0.21088975
6
energy=-373.360053 Lattice="12.718 0.0 0.0 0.0 12.718 0.0 0.0 0.0 12.718" Properties=species:S:1:pos:R:3:Z:I:1:force:R:3
C 6.341752 6.539744 5.587603 6 0.05310412 -1.26972426 0.22454694
H 6.244586 5.843912 6.441589 1 0.24171524 -0.06477231 -0.55018767
H 6.537907 6.131648 4.573144 1 -0.22829715 0.17879721 0.64666787
C 6.205668 7.831095 5.837504 6 0.13750938 0.28071890 -2.06544732
H 6.227778 8.491253 4.938917 1 0.03990663 0.14708315 1.03013070
H 6.065035 8.165898 6.836310 1 -0.24211839 0.71356186 0.72210564
6
energy=-373.325683 Lattice="12.718 0.0 0.0 0.0 12.718 0.0 0.0 0.0 12.718" Properties=species:S:1:pos:R:3:Z:I:1:force:R:3
C 6.182919 8.103100 5.588004 6 -0.15056751 1.15772796 0.49316571
H 6.267467 8.903869 4.798221 1 -0.04952925 -0.50740294 1.19268933
H 6.059743 8.302718 6.672467 1 -0.08542959 0.49944486 -0.69350261
C 6.238979 6.848251 5.201018 6 0.71076347 -1.34027281 -1.03943553
H 6.202271 5.933966 5.802197 1 -0.13994987 0.39156746 0.31820150
H 6.500405 6.656422 4.161218 1 -0.28450717 -0.19107887 -0.27286263
6
energy=-373.354915 Lattice="12.718 0.0 0.0 0.0 12.718 0.0 0.0 0.0 12.718" Properties=species:S:1:pos:R:3:Z:I:1:force:R:3
C 6.390912 6.924071 5.719136 6 -0.09591970 -0.55823318 -0.71544648
H 6.653884 6.538037 4.746327 1 0.37179412 -0.36327862 -0.29313888
H 6.179990 7.948903 5.692494 1 -0.28794062 1.76009158 0.32474959
C 6.198595 6.134040 6.757739 6 0.15744059 -1.20946682 -0.20233619
H 5.820670 6.489779 7.711126 1 0.08868512 -0.11486772 0.20345000
H 6.403737 5.057564 6.570658 1 -0.23478097 0.48564471 0.68690875
6
energy=-373.375275 Lattice="12.718 0.0 0.0 0.0 12.718 0.0 0.0 0.0 12.718" Properties=species:S:1:pos:R:3:Z:I:1:force:R:3
C 6.020347 7.491403 6.083111 6 -0.09358462 -0.14961877 0.73055377
H 5.911634 8.381014 6.701064 1 -0.05232456 0.09388544 0.06543257
H 5.807407 6.538786 6.573249 1 -0.03159837 0.02170167 -0.00697129
C 6.427002 7.558741 4.821845 6 -0.45705505 -1.38539519 0.73416052
H 6.502491 6.598604 4.292645 1 0.22121170 0.62760982 -0.43834409
H 6.607174 8.525584 4.433285 1 0.41601816 0.78093766 -1.07227060
6
energy=-373.298699 Lattice="12.718 0.0 0.0 0.0 12.718 0.0 0.0 0.0 12.718" Properties=species:S:1:pos:R:3:Z:I:1:force:R:3
C 6.226669 7.444777 6.056537 6 -0.03537943 0.57577428 -1.82901673
H 6.327373 8.088451 5.099892 1 0.14820055 -1.18150708 1.28098982
H 5.957325 8.108132 6.904703 1 0.14510648 -0.90255196 -0.05748528
C 6.321019 6.089796 6.024676 6 -0.40093503 1.30423466 -0.12898308
H 6.058197 5.541316 6.923263 1 0.22968247 -0.31615078 0.17919213
H 6.540125 5.500810 5.107316 1 -0.08607648 0.53119544 0.55178433
6
energy=-373.278113 Lattice="12.718 0.0 0.0 0.0 12.718 0.0 0.0 0.0 12.718" Properties=species:S:1:pos:R:3:Z:I:1:force:R:3
C 6.073473 6.957362 5.550210 6 -0.11100797 -0.10061711 -0.06719891
H 5.735685 7.096926 6.573326 1 0.30560617 -0.36424742 0.25587894
H 6.072225 5.996749 5.074450 1 -0.21071748 -0.80870611 0.07383442
C 6.393250 8.015315 4.831022 6 -0.70739275 0.79257551 -1.09139962
H 6.431427 8.092634 3.734259 1 0.60179952 -0.61585627 0.24766066
H 6.319470 8.976134 5.277099 1 0.12189352 1.09652486 0.58029069
6
energy=-373.319579 Lattice="12.718 0.0 0.0 0.0 12.718 0.0 0.0 0.0 12.718" Properties=species:S:1:pos:R:3:Z:I:1:force:R:3
C 6.054682 7.827028 5.909330 6 0.12161172 -1.39232946 0.58357707
H 6.173633 8.868011 5.909061 1 -0.27079341 1.73196729 -0.19614034
H 5.810608 7.404519 6.878175 1 -0.01030910 -0.28887187 0.17551443
C 6.361648 7.106201 4.834546 6 0.17161406 0.28416212 0.66632089
H 6.512189 6.032270 4.873749 1 -0.35993002 -0.17549797 -0.30173100
H 6.592246 7.690326 3.966931 1 0.34687703 -0.15600642 -0.92344013
6
energy=-373.319663 Lattice="12.718 0.0 0.0 0.0 12.718 0.0 0.0 0.0 12.718" Properties=species:S:1:pos:R:3:Z:I:1:force:R:3
C 6.025440 7.405898 5.832560 6 -0.89783707 -1.35010112 1.74037069
H 5.864051 8.200766 6.553063 1 0.05423592 0.53562185 -0.21408049
H 5.763785 6.440766 6.290500 1 0.25379326 -0.09373940 -0.32884073
C 6.410169 7.560452 4.590140 6 0.82504445 2.72295446 -0.70847364
H 6.657541 6.800515 3.872062 1 -0.14696025 -0.45797808 -0.26740263
H 6.605223 8.648455 4.314648 1 -0.08745202 -1.36632531 -0.22029433
6