LAMMPS data file via write_data, version 2 Aug 2023, timestep = 69560, units = metal

6 atoms
2 atom types

0 10 xlo xhi
0 10 ylo yhi
0 10 zlo zhi

Masses

1 12.0107
2 1.00794

Atoms # atomic

4 2 6.356059275502195 4.87288183129878 5.683512971032134 0 0 0
1 1 4.337913247899854 5.046398876341644 5.110313055122285 0 0 0
6 2 3.9435529018880686 4.991426374699009 6.109224063385541 0 0 0
3 2 6.076597609795009 5.032686068663092 3.9053259535288203 0 0 0
2 1 5.659363205560539 4.950982526448682 4.890042879936073 0 0 0
5 2 3.65862557113228 5.1338065256722505 4.299465041596686 0 0 0

Velocities

4 -7.187940018142639 5.049714033160977 0.4442048379569101
1 2.8171873065418933 2.5899715925850706 1.5759367994647977
6 12.138057404900852 18.13524974990814 4.406572422410825
3 -17.197068986409988 -18.31115440297059 -6.250387434804329
2 -2.088473278261786 -3.0240263468640043 -1.6134213200778618
5 3.5635323688801988 0.2984245199530472 1.8462789560390935
