LAMMPS data file via write_data, version 2 Aug 2023, timestep = 132000, units = metal

6 atoms
2 atom types

0 10 xlo xhi
0 10 ylo yhi
0 10 zlo zhi

Masses

1 12.0107
2 1.00794

Atoms # atomic

4 2 4.967016217675508 4.0658798789275865 3.768204910183401 0 0 0
2 1 5.345080578393934 4.546420790661179 4.633059206444807 0 0 0
6 2 3.7431511867956697 5.934419563774951 4.9110062239802765 0 0 0
3 2 6.345471356205302 4.209174181141637 5.118691037060027 0 0 0
1 1 4.635317624734898 5.445607057026127 5.361227312689971 0 0 0
5 2 5.180391358065602 5.885105615123681 6.272021112619032 0 0 0

Velocities

4 -14.653573112199977 -38.05666918664562 19.98267716133271
2 -3.180365809694524 -9.07579405777508 -1.832368923096313
6 1.5041349373762338 -14.30105721784047 29.3121876368098
3 -38.339275892925905 -22.429961038242574 -24.501398837900382
1 4.249080638733624 15.06564839390153 4.4488655786261395
5 38.753815961577985 3.4120663988983155 -55.97186584573769
