LAMMPS data file via write_data, version 2 Aug 2023, timestep = 69560, units = metal

6 atoms
2 atom types

0 10 xlo xhi
0 10 ylo yhi
0 10 zlo zhi

Masses

1 12.0107
2 1.00794

Atoms # atomic

5 2 5.69547818632388 6.294466857159466 4.39244342924866 0 0 0
1 1 5.14651122888392 5.646423092244052 5.114479969421144 0 0 0
6 2 4.813231065657235 6.138990349774633 6.052330872112038 0 0 0
3 2 5.157580582287643 3.854731104286472 3.9030332493543156 0 0 0
2 1 4.853528536129544 4.357791776945665 4.889698383750137 0 0 0
4 2 4.335617665114952 3.6611843138140525 5.604172214891981 0 0 0

Velocities

5 -7.121196566954813 -1.516440772062671 -2.1360640215100033
1 2.7680737525280814 0.7180394737656022 -2.009828984191221
6 35.17470346207383 -1.4061365121334355 -8.987340390318355
3 -24.038128941088516 -0.08750809512116353 -1.3963726861602384
2 -3.5477835216633977 -1.4874327935285925 2.579732640983778
4 5.275710924426233 12.178242557001644 5.728755955225375
