ITEM: TIMESTEP
91000
ITEM: NUMBER OF ATOMS
6
ITEM: BOX BOUNDS pp pp pp
0.0000000000000000e+00 1.0000000000000000e+01
0.0000000000000000e+00 1.0000000000000000e+01
0.0000000000000000e+00 1.0000000000000000e+01
ITEM: ATOMS id type x y z vx vy vz
2 1 5.54085 4.77169 4.65373 -3.85708 -9.86953 -1.72348
3 2 5.52725 4.52776 3.65842 -31.6239 -24.8408 -12.8232
5 2 3.47111 5.43498 4.97307 -5.17628 2.27223 22.4338
4 2 6.48129 4.75152 5.18659 10.9183 13.1555 14.3697
6 2 4.46022 5.24567 6.49088 27.4073 0.302366 -21.0506
1 1 4.4644 5.23164 5.3205 3.72906 10.6341 1.47763
ITEM: TIMESTEP
91100
ITEM: NUMBER OF ATOMS
6
ITEM: BOX BOUNDS pp pp pp
0.0000000000000000e+00 1.0000000000000000e+01
0.0000000000000000e+00 1.0000000000000000e+01
0.0000000000000000e+00 1.0000000000000000e+01
ITEM: ATOMS id type x y z vx vy vz
2 1 4.88816 4.38392 4.7626 -6.06548 0.90567 4.17727
3 2 4.21113 3.62233 5.32551 -12.5263 1.81612 27.4772
5 2 4.44782 6.04086 6.01662 31.306 -46.2142 9.14089
4 2 5.33659 3.97875 3.82848 -22.1245 -20.0662 -14.3297
6 2 5.78257 6.31699 4.84283 22.397 -15.2111 -27.8423
1 1 5.13066 5.6195 5.23642 4.46662 5.78071 -3.71118
ITEM: TIMESTEP
91200
ITEM: NUMBER OF ATOMS
6
ITEM: BOX BOUNDS pp pp pp
0.0000000000000000e+00 1.0000000000000000e+01
0.0000000000000000e+00 1.0000000000000000e+01
0.0000000000000000e+00 1.0000000000000000e+01
ITEM: ATOMS id type x y z vx vy vz
2 1 4.43698 4.81104 5.29838 -3.69586 7.19639 9.2702
3 2 4.44448 4.16974 6.1677 11.8338 16.7138 0.129777
5 2 6.48836 5.21306 5.24365 40.1694 -21.7268 1.73543
4 2 3.37388 4.95112 5.00384 34.0624 18.4925 -9.54259
6 2 5.52251 5.70073 3.70142 -16.954 1.4688 12.8022
1 1 5.57756 5.18602 4.69199 -2.104 -8.45086 -9.70028
ITEM: TIMESTEP
91300
ITEM: NUMBER OF ATOMS
6
ITEM: BOX BOUNDS pp pp pp
0.0000000000000000e+00 1.0000000000000000e+01
0.0000000000000000e+00 1.0000000000000000e+01
0.0000000000000000e+00 1.0000000000000000e+01
ITEM: ATOMS id type x y z vx vy vz
2 1 4.99163 5.40604 5.52873 10.0053 4.24006 -0.527809
3 2 4.89094 5.07197 6.52717 22.4594 -25.7767 -8.27644
5 2 4.89244 3.47631 4.50359 -19.394 26.0483 17.9378
4 2 5.18577 6.44156 5.38149 15.3592 27.8527 -21.8777
6 2 5.07964 4.92612 3.42391 42.6437 -1.51977 -15.7367
1 1 5.00447 4.60098 4.48517 -15.1301 -6.47272 2.87363
ITEM: TIMESTEP
91400
ITEM: NUMBER OF ATOMS
6
ITEM: BOX BOUNDS pp pp pp
0.0000000000000000e+00 1.0000000000000000e+01
0.0000000000000000e+00 1.0000000000000000e+01
0.0000000000000000e+00 1.0000000000000000e+01
ITEM: ATOMS id type x y z vx vy vz
2 1 5.59592 5.25021 5.07091 0.480331 -5.23249 -8.81734
3 2 5.75507 6.20445 5.7448 13.969 4.73457 8.62748
5 2 3.57095 5.34433 5.27575 14.0987 60.8429 -2.44953
4 2 6.56716 4.82824 4.74269 -5.61412 -12.0245 -4.15752
6 2 4.11705 3.90991 4.28735 13.5555 2.94757 50.1788
1 1 4.40343 4.72568 4.925 -3.50222 0.490958 4.43677
ITEM: TIMESTEP
91500
ITEM: NUMBER OF ATOMS
6
ITEM: BOX BOUNDS pp pp pp
0.0000000000000000e+00 1.0000000000000000e+01
0.0000000000000000e+00 1.0000000000000000e+01
0.0000000000000000e+00 1.0000000000000000e+01
ITEM: ATOMS id type x y z vx vy vz
2 1 5.40336 4.6647 4.60467 -9.47834 -8.70282 -4.84386
3 2 5.62477 4.826 3.55056 -21.0991 4.6433 40.0698
5 2 3.99725 6.17219 5.06949 -4.24425 -9.45486 3.75341
4 2 5.78276 3.63756 4.94779 -18.1004 13.5266 23.6953
6 2 4.52253 4.98821 6.44437 23.8852 1.07985 29.2238
1 1 4.60294 5.36682 5.39445 11.1197 7.88083 -3.27477
ITEM: TIMESTEP
91600
ITEM: NUMBER OF ATOMS
6
ITEM: BOX BOUNDS pp pp pp
0.0000000000000000e+00 1.0000000000000000e+01
0.0000000000000000e+00 1.0000000000000000e+01
0.0000000000000000e+00 1.0000000000000000e+01
ITEM: ATOMS id type x y z vx vy vz
2 1 4.64519 4.43625 4.90482 -2.62697 0.466653 4.599
3 2 3.55798 4.45935 4.75311 -12.6271 48.7398 36.3072
5 2 4.91691 6.62558 5.02694 -14.4664 -10.3629 4.76248
4 2 5.10267 3.55985 5.10646 -24.557 18.1753 11.0985
6 2 6.42379 5.56184 5.17862 0.733483 6.56676 -23.3304
1 1 5.3549 5.54638 5.08986 6.89994 -5.76361 -7.01907
ITEM: TIMESTEP
91700
ITEM: NUMBER OF ATOMS
6
ITEM: BOX BOUNDS pp pp pp
0.0000000000000000e+00 1.0000000000000000e+01
0.0000000000000000e+00 1.0000000000000000e+01
0.0000000000000000e+00 1.0000000000000000e+01
ITEM: ATOMS id type x y z vx vy vz
2 1 4.53391 4.9538 5.46508 4.61538 13.6494 1.654
3 2 4.71118 5.37204 6.41898 15.0369 -26.4753 41.0768
5 2 6.44278 5.36596 4.72965 1.03772 -19.7808 1.12002
4 2 3.55492 4.43058 5.2906 -20.5581 -4.29527 -7.27105
6 2 5.27132 4.70094 3.47304 -38.8504 -14.3882 24.1878
1 1 5.46796 5.05712 4.54243 -0.978797 -8.19966 -6.61482
ITEM: TIMESTEP
91800
ITEM: NUMBER OF ATOMS
6
ITEM: BOX BOUNDS pp pp pp
0.0000000000000000e+00 1.0000000000000000e+01
0.0000000000000000e+00 1.0000000000000000e+01
0.0000000000000000e+00 1.0000000000000000e+01
ITEM: ATOMS id type x y z vx vy vz
2 1 5.14756 5.44326 5.43829 8.3013 4.17161 -5.14138
3 2 5.92118 5.40852 6.3165 -1.17246 -26.4536 2.19357
5 2 5.05809 3.43799 4.65923 -26.5419 11.4184 8.16788
4 2 4.90801 6.49634 5.22929 23.107 -2.18199 -25.9895
6 2 4.28311 4.89883 3.7395 -40.8879 12.5905 -5.16312
1 1 4.83834 4.53642 4.56652 -4.48333 -3.78334 6.88618
ITEM: TIMESTEP
91900
ITEM: NUMBER OF ATOMS
6
ITEM: BOX BOUNDS pp pp pp
0.0000000000000000e+00 1.0000000000000000e+01
0.0000000000000000e+00 1.0000000000000000e+01
0.0000000000000000e+00 1.0000000000000000e+01
ITEM: ATOMS id type x y z vx vy vz
2 1 5.63467 5.08504 4.86724 -1.43941 -3.76881 -6.44231
3 2 6.30628 5.1844 5.66437 -9.51757 3.8156 -8.90142
5 2 4.01898 4.86902 6.16394 -1.63901 13.5583 33.1658
4 2 5.99772 4.96611 3.84205 -18.4372 -56.742 14.9778
6 2 3.51172 4.68284 4.42619 11.3633 32.9426 34.6314
1 1 4.37941 4.9399 5.12481 2.96932 4.30805 0.242822
ITEM: TIMESTEP
92000
ITEM: NUMBER OF ATOMS
6
ITEM: BOX BOUNDS pp pp pp
0.0000000000000000e+00 1.0000000000000000e+01
0.0000000000000000e+00 1.0000000000000000e+01
0.0000000000000000e+00 1.0000000000000000e+01
ITEM: ATOMS id type x y z vx vy vz
4 2 4.8227 3.47775 4.79052 -4.28827 -29.6117 43.061
2 1 5.2437 4.49162 4.66164 -9.11461 3.79006 0.912812
3 2 5.90922 4.67806 3.81019 -16.6056 -36.2704 -29.1827
6 2 4.04252 5.35443 6.12878 5.76697 -20.7816 21.3277
1 1 4.7605 5.50436 5.33911 9.6875 7.37024 -4.18447
5 2 5.1779 6.5373 5.26332 8.30021 -46.3232 3.77946
ITEM: TIMESTEP
92100
ITEM: NUMBER OF ATOMS
6
ITEM: BOX BOUNDS pp pp pp
0.0000000000000000e+00 1.0000000000000000e+01
0.0000000000000000e+00 1.0000000000000000e+01
0.0000000000000000e+00 1.0000000000000000e+01
ITEM: ATOMS id type x y z vx vy vz
4 2 4.60468 3.67745 5.69919 -9.69369 12.5528 -10.9886
2 1 4.52194 4.55857 5.03955 -2.58423 2.08142 7.17786
3 2 3.49964 4.64566 4.50234 -3.66004 34.9163 22.9841
6 2 6.26539 5.43694 5.69341 5.38485 -12.3216 -48.4995
1 1 5.49416 5.44838 4.95528 2.69682 -4.48352 0.0883926
5 2 5.44086 6.15669 4.16839 6.6273 -6.52394 -50.0814
ITEM: TIMESTEP
92200
ITEM: NUMBER OF ATOMS
6
ITEM: BOX BOUNDS pp pp pp
0.0000000000000000e+00 1.0000000000000000e+01
0.0000000000000000e+00 1.0000000000000000e+01
0.0000000000000000e+00 1.0000000000000000e+01
ITEM: ATOMS id type x y z vx vy vz
4 2 4.19845 4.49444 6.24174 21.7682 5.92312 -7.13539
2 1 4.71309 5.19496 5.56157 4.75726 9.51116 1.31909
3 2 4.6827 6.20985 5.72894 26.157 -20.0126 13.1262
6 2 5.63791 3.77973 4.2155 -12.9452 -50.4975 -16.2414
1 1 5.27051 4.80092 4.44201 -8.94198 -1.4617 -0.356278
5 2 5.67876 5.56463 3.7729 14.8855 -31.3311 -1.22237
ITEM: TIMESTEP
92300
ITEM: NUMBER OF ATOMS
6
ITEM: BOX BOUNDS pp pp pp
0.0000000000000000e+00 1.0000000000000000e+01
0.0000000000000000e+00 1.0000000000000000e+01
0.0000000000000000e+00 1.0000000000000000e+01
ITEM: ATOMS id type x y z vx vy vz
4 2 4.91275 6.25801 5.72165 27.4805 40.0853 3.82567
2 1 5.37073 5.41366 5.34177 2.7939 -5.96859 -5.68189
3 2 6.47027 5.27242 5.53116 22.8132 4.94483 -8.92335
6 2 3.52959 4.73271 4.72288 19.1407 18.5591 9.79272
1 1 4.63634 4.58956 4.65764 -7.7241 3.46465 2.75011
5 2 5.0055 3.69813 4.03307 -10.6857 -33.752 30.2403
ITEM: TIMESTEP
92400
ITEM: NUMBER OF ATOMS
6
ITEM: BOX BOUNDS pp pp pp
0.0000000000000000e+00 1.0000000000000000e+01
0.0000000000000000e+00 1.0000000000000000e+01
0.0000000000000000e+00 1.0000000000000000e+01
ITEM: ATOMS id type x y z vx vy vz
4 2 5.98447 5.48442 3.74921 10.0777 -13.5796 -8.1094
2 1 5.57352 4.92583 4.71808 -5.53387 -6.37056 -5.35242
3 2 6.31711 4.29743 5.15543 -0.789974 -31.0263 4.54107
6 2 3.60642 5.69834 4.88517 -10.3309 -3.35026 23.6054
1 1 4.41435 5.08707 5.29598 3.69024 6.46205 2.05558
5 2 4.23891 4.36567 6.04439 23.012 46.866 19.2483
ITEM: TIMESTEP
92500
ITEM: NUMBER OF ATOMS
6
ITEM: BOX BOUNDS pp pp pp
0.0000000000000000e+00 1.0000000000000000e+01
0.0000000000000000e+00 1.0000000000000000e+01
0.0000000000000000e+00 1.0000000000000000e+01
ITEM: ATOMS id type x y z vx vy vz
4 2 4.05642 4.12913 4.18325 -8.37443 26.0374 7.46309
2 1 4.91661 4.41442 4.70376 -5.31432 -3.4711 7.29426
3 2 5.85906 3.71999 4.77409 -45.2661 -8.86338 -4.98849
6 2 4.29655 6.32991 5.26738 -14.9756 6.84857 35.237
1 1 5.07053 5.58295 5.28554 9.80454 -1.38007 -9.15474
5 2 5.94361 5.852 5.90449 15.1102 33.7843 -15.542
ITEM: TIMESTEP
92600
ITEM: NUMBER OF ATOMS
6
ITEM: BOX BOUNDS pp pp pp
0.0000000000000000e+00 1.0000000000000000e+01
0.0000000000000000e+00 1.0000000000000000e+01
0.0000000000000000e+00 1.0000000000000000e+01
ITEM: ATOMS id type x y z vx vy vz
4 2 4.25884 4.75858 6.35796 -23.4612 -19.7517 -13.5849
2 1 4.47738 4.67844 5.24316 2.02754 10.2399 8.75736
3 2 3.97938 3.96384 4.71344 -13.5968 -6.2415 14.3622
6 2 6.13441 5.99272 5.40419 31.6633 -52.1701 -20.1081
1 1 5.5083 5.32091 4.74477 -0.188597 -2.49964 -5.36563
5 2 5.80049 5.29227 3.6699 -16.5184 -14.0698 -21.0854
ITEM: TIMESTEP
92700
ITEM: NUMBER OF ATOMS
6
ITEM: BOX BOUNDS pp pp pp
0.0000000000000000e+00 1.0000000000000000e+01
0.0000000000000000e+00 1.0000000000000000e+01
0.0000000000000000e+00 1.0000000000000000e+01
ITEM: ATOMS id type x y z vx vy vz
4 2 5.24738 5.23741 6.50752 15.0949 0.635279 28.9564
2 1 4.84229 5.34071 5.5325 9.26107 8.38596 -4.67393
3 2 4.09713 6.1974 5.48191 3.56961 -6.96681 15.0231
6 2 5.8396 3.78497 4.47641 -25.0212 -38.3245 -14.3623
1 1 5.15491 4.6317 4.46378 -10.3191 -2.68952 1.19675
5 2 4.85164 5.10857 3.58018 18.9645 -23.2232 11.8172
ITEM: TIMESTEP
92800
ITEM: NUMBER OF ATOMS
6
ITEM: BOX BOUNDS pp pp pp
0.0000000000000000e+00 1.0000000000000000e+01
0.0000000000000000e+00 1.0000000000000000e+01
0.0000000000000000e+00 1.0000000000000000e+01
ITEM: ATOMS id type x y z vx vy vz
4 2 5.94644 5.21461 6.16628 -2.10377 18.5597 -25.5641
2 1 5.55942 5.35109 5.12143 5.23762 -7.28499 -3.69175
3 2 6.22131 5.67965 4.32564 10.7785 -19.8088 -23.188
6 2 3.87851 4.34454 5.70137 -25.5563 2.17221 -13.2139
1 1 4.4369 4.68043 4.87379 -0.566534 9.37997 9.31129
5 2 4.00003 4.38525 3.86539 -38.7794 -25.8872 -4.99699
ITEM: TIMESTEP
92900
ITEM: NUMBER OF ATOMS
6
ITEM: BOX BOUNDS pp pp pp
0.0000000000000000e+00 1.0000000000000000e+01
0.0000000000000000e+00 1.0000000000000000e+01
0.0000000000000000e+00 1.0000000000000000e+01
ITEM: ATOMS id type x y z vx vy vz
4 2 6.36837 5.3365 4.44133 25.1788 -36.6502 -28.3457
2 1 5.51181 4.71948 4.65323 -9.7156 -5.16484 -5.13257
3 2 5.50132 3.66097 4.49051 15.0163 9.83264 35.4213
6 2 4.33408 6.4492 5.46587 -0.404358 19.8388 7.08919
1 1 4.49637 5.27123 5.33383 4.25079 4.03079 2.94211
5 2 3.70105 4.66356 5.75822 25.3285 20.4923 11.9369
ITEM: TIMESTEP
93000
ITEM: NUMBER OF ATOMS
6
ITEM: BOX BOUNDS pp pp pp
0.0000000000000000e+00 1.0000000000000000e+01
0.0000000000000000e+00 1.0000000000000000e+01
0.0000000000000000e+00 1.0000000000000000e+01
ITEM: ATOMS id type x y z vx vy vz
4 2 4.0663 4.34732 3.95506 -20.044 12.8365 2.7349
2 1 4.75703 4.41352 4.78099 -10.8099 0.662805 9.92153
6 2 5.03513 6.47119 4.63087 33.2643 -42.0222 6.30836
3 2 4.91426 3.4388 5.31728 12.3267 -38.6658 -24.6395
1 1 5.24529 5.59341 5.21619 7.51136 3.66068 -6.88024
5 2 5.9591 5.65971 6.1322 13.7587 16.3325 -20.6441
ITEM: TIMESTEP
93100
ITEM: NUMBER OF ATOMS
6
ITEM: BOX BOUNDS pp pp pp
0.0000000000000000e+00 1.0000000000000000e+01
0.0000000000000000e+00 1.0000000000000000e+01
0.0000000000000000e+00 1.0000000000000000e+01
ITEM: ATOMS id type x y z vx vy vz
4 2 4.08927 5.81435 5.96699 27.0002 -3.53929 21.5754
2 1 4.48022 4.88401 5.41202 -0.666615 8.75953 6.5922
6 2 5.74393 6.14135 4.30101 19.047 -11.332 -33.9848
3 2 4.20593 3.92499 5.8591 -7.85306 3.0355 -7.80364
1 1 5.50526 5.09044 4.56585 0.0742172 -9.56704 -4.05695
5 2 6.13628 4.4234 4.13837 -31.1351 21.4581 -9.99724
ITEM: TIMESTEP
93200
ITEM: NUMBER OF ATOMS
6
ITEM: BOX BOUNDS pp pp pp
0.0000000000000000e+00 1.0000000000000000e+01
0.0000000000000000e+00 1.0000000000000000e+01
0.0000000000000000e+00 1.0000000000000000e+01
ITEM: ATOMS id type x y z vx vy vz
4 2 5.88456 5.45286 6.18223 5.16661 -4.42341 14.9373
2 1 5.05534 5.41154 5.53513 5.03187 4.26404 -7.07191
6 2 5.64174 3.92912 4.05827 -4.05258 -13.0251 1.10203
3 2 4.16617 6.03887 5.75141 51.6618 21.3934 20.2116
1 1 4.97256 4.59821 4.46464 -5.95573 -4.96868 6.08838
5 2 3.97751 4.46254 4.01258 -41.767 4.45164 -24.5311
ITEM: TIMESTEP
93300
ITEM: NUMBER OF ATOMS
6
ITEM: BOX BOUNDS pp pp pp
0.0000000000000000e+00 1.0000000000000000e+01
0.0000000000000000e+00 1.0000000000000000e+01
0.0000000000000000e+00 1.0000000000000000e+01
ITEM: ATOMS id type x y z vx vy vz
4 2 6.43512 4.86892 5.63582 -7.78435 15.2529 -15.0144
2 1 5.63184 5.23056 4.95595 -3.20346 -10.711 -5.80161
6 2 4.1742 4.00312 5.88153 -6.04134 22.6324 37.8357
3 2 6.08041 5.86875 4.17769 43.5014 2.46677 -18.7439
1 1 4.35252 4.77133 5.02683 1.20193 6.97658 2.81822
5 2 3.49904 5.23621 4.51194 -5.82539 4.14723 31.473
ITEM: TIMESTEP
93400
ITEM: NUMBER OF ATOMS
6
ITEM: BOX BOUNDS pp pp pp
0.0000000000000000e+00 1.0000000000000000e+01
0.0000000000000000e+00 1.0000000000000000e+01
0.0000000000000000e+00 1.0000000000000000e+01
ITEM: ATOMS id type x y z vx vy vz
4 2 6.43158 4.41571 4.51697 7.50483 -24.4653 -15.0275
2 1 5.30716 4.51329 4.62994 -7.14435 -4.7891 -1.04488
6 2 5.23189 6.10115 6.09449 -13.3877 32.0426 -48.3452
3 2 4.68213 3.73096 4.04166 -7.96671 26.7752 30.4056
1 1 4.69824 5.49925 5.37167 6.73758 0.239253 1.70233
5 2 3.59252 5.60231 5.32951 18.6967 19.8638 25.1329
ITEM: TIMESTEP
93500
ITEM: NUMBER OF ATOMS
6
ITEM: BOX BOUNDS pp pp pp
0.0000000000000000e+00 1.0000000000000000e+01
0.0000000000000000e+00 1.0000000000000000e+01
0.0000000000000000e+00 1.0000000000000000e+01
ITEM: ATOMS id type x y z vx vy vz
4 2 4.20766 4.06007 4.00813 -2.04614 13.4508 59.3468
2 1 4.60044 4.42521 4.94699 -6.09848 1.70895 1.30689
6 2 5.90913 6.09204 4.23272 -3.85936 10.0773 -35.3965
3 2 4.38186 3.89672 5.85596 -22.5909 -1.19443 8.17601
1 1 5.3771 5.58165 5.04398 4.7904 -2.45427 -4.12033
5 2 5.77137 5.86901 6.01257 44.0837 -13.4523 1.39891
ITEM: TIMESTEP
93600
ITEM: NUMBER OF ATOMS
6
ITEM: BOX BOUNDS pp pp pp
0.0000000000000000e+00 1.0000000000000000e+01
0.0000000000000000e+00 1.0000000000000000e+01
0.0000000000000000e+00 1.0000000000000000e+01
ITEM: ATOMS id type x y z vx vy vz
4 2 3.78965 5.80675 5.42927 -27.5864 27.287 5.20232
2 1 4.56195 5.12088 5.51268 5.25644 3.27963 4.15556
6 2 5.35834 5.50482 3.54114 2.05804 -2.95826 3.64243
3 2 4.47746 4.60848 6.43062 20.155 34.1906 2.48817
1 1 5.44646 4.87835 4.49579 -1.47773 -4.46831 -3.63024
5 2 6.27674 4.08878 4.49988 -39.6542 -44.3549 -17.5926
ITEM: TIMESTEP
93700
ITEM: NUMBER OF ATOMS
6
ITEM: BOX BOUNDS pp pp pp
0.0000000000000000e+00 1.0000000000000000e+01
0.0000000000000000e+00 1.0000000000000000e+01
0.0000000000000000e+00 1.0000000000000000e+01
ITEM: ATOMS id type x y z vx vy vz
4 2 6.12945 6.18279 5.10355 5.23187 5.86228 -21.8393
2 1 5.34251 5.42588 5.40086 9.39983 -2.93785 -6.83113
6 2 4.89713 4.30173 3.58528 -16.3572 -22.4119 28.8828
3 2 5.09186 5.48058 6.49355 -8.1596 8.12841 47.6665
1 1 4.65479 4.58388 4.58044 -6.29864 -0.577982 2.57188
5 2 3.91612 3.91821 5.04226 -17.6691 50.3162 -3.95644
ITEM: TIMESTEP
93800
ITEM: NUMBER OF ATOMS
6
ITEM: BOX BOUNDS pp pp pp
0.0000000000000000e+00 1.0000000000000000e+01
0.0000000000000000e+00 1.0000000000000000e+01
0.0000000000000000e+00 1.0000000000000000e+01
ITEM: ATOMS id type x y z vx vy vz
4 2 6.28972 4.11245 4.71008 -16.8921 -31.5722 -12.2717
2 1 5.64969 5.03305 4.81892 -0.899727 -2.33026 -4.0155
6 2 3.92467 4.02341 5.52887 8.45688 4.98329 52.5135
3 2 6.26726 6.06325 4.68496 6.19553 -21.2526 -15.3904
1 1 4.33936 4.97063 5.17163 1.76 4.03752 2.53267
5 2 3.65117 5.75669 5.19053 -8.01139 27.4976 -7.18192
ITEM: TIMESTEP
93900
ITEM: NUMBER OF ATOMS
6
ITEM: BOX BOUNDS pp pp pp
0.0000000000000000e+00 1.0000000000000000e+01
0.0000000000000000e+00 1.0000000000000000e+01
0.0000000000000000e+00 1.0000000000000000e+01
ITEM: ATOMS id type x y z vx vy vz
4 2 5.54529 3.48987 4.9913 -25.2692 25.3624 -25.0928
2 1 5.04699 4.44508 4.61245 -7.79147 -8.44434 3.63892
6 2 5.36416 5.58297 6.40557 38.3578 19.2343 -4.37723
3 2 4.85312 4.39296 3.56698 -11.2338 21.6062 36.2904
1 1 4.94648 5.55822 5.38163 7.13696 2.61031 -2.7928
5 2 4.31764 6.49445 5.10852 5.94442 3.31598 -16.9028
ITEM: TIMESTEP
94000
ITEM: NUMBER OF ATOMS
6
ITEM: BOX BOUNDS pp pp pp
0.0000000000000000e+00 1.0000000000000000e+01
0.0000000000000000e+00 1.0000000000000000e+01
0.0000000000000000e+00 1.0000000000000000e+01
ITEM: ATOMS id type x y z vx vy vz
6 2 6.50311 5.04653 4.35958 -23.3502 -7.86779 -8.48067
1 1 5.52787 5.36993 4.78735 1.66125 -4.81484 -8.53993
5 2 5.48691 6.41701 4.98552 14.0331 -23.8067 0.814966
4 2 4.48915 3.63584 5.33425 -4.9383 9.28213 -16.877
2 1 4.47073 4.61324 5.20031 -1.08292 4.26348 9.65192
3 2 3.53993 5.10079 5.46949 7.36399 28.9625 11.2922
ITEM: TIMESTEP
94100
ITEM: NUMBER OF ATOMS
6
ITEM: BOX BOUNDS pp pp pp
0.0000000000000000e+00 1.0000000000000000e+01
0.0000000000000000e+00 1.0000000000000000e+01
0.0000000000000000e+00 1.0000000000000000e+01
ITEM: ATOMS id type x y z vx vy vz
6 2 4.60439 4.68552 3.60395 -28.4057 4.95052 -2.38203
1 1 5.27427 4.76709 4.42841 -6.52568 -5.14744 1.45779
5 2 6.2847 4.43844 4.19642 -0.815109 -24.2543 1.4348
4 2 3.63954 5.22215 5.69444 -49.4756 30.9582 0.298434
2 1 4.74422 5.25208 5.57517 11.0065 4.35393 -2.54009
3 2 5.25337 5.42503 6.46435 25.3024 -2.19897 13.5456
ITEM: TIMESTEP
94200
ITEM: NUMBER OF ATOMS
6
ITEM: BOX BOUNDS pp pp pp
0.0000000000000000e+00 1.0000000000000000e+01
0.0000000000000000e+00 1.0000000000000000e+01
0.0000000000000000e+00 1.0000000000000000e+01
ITEM: ATOMS id type x y z vx vy vz
6 2 3.86866 4.7921 3.88329 -12.7374 11.1727 23.9367
1 1 4.51336 4.59136 4.78488 -4.3341 4.51714 7.8869
5 2 4.27908 3.63943 5.33367 -2.78164 12.0021 14.2731
4 2 5.63217 6.46863 4.80221 15.8302 -12.1048 -10.4743
2 1 5.48674 5.40737 5.2045 4.63595 -4.68697 -13.9439
3 2 6.22117 5.1146 6.10911 -3.90813 -9.04624 44.4408
ITEM: TIMESTEP
94300
ITEM: NUMBER OF ATOMS
6
ITEM: BOX BOUNDS pp pp pp
0.0000000000000000e+00 1.0000000000000000e+01
0.0000000000000000e+00 1.0000000000000000e+01
0.0000000000000000e+00 1.0000000000000000e+01
ITEM: ATOMS id type x y z vx vy vz
6 2 3.46859 4.97091 4.95458 18.9845 15.6077 -5.55983
1 1 4.45004 5.22591 5.30839 4.3869 5.29097 3.6156
5 2 4.43791 5.93888 6.07892 10.255 7.72709 -19.7671
4 2 5.43759 3.97956 3.90254 -46.9527 -22.5163 12.8333
2 1 5.54966 4.77997 4.69333 -0.235597 -6.09959 1.35863
3 2 6.66182 5.04008 5.04524 -31.7542 8.81707 -46.7798
ITEM: TIMESTEP
94400
ITEM: NUMBER OF ATOMS
6
ITEM: BOX BOUNDS pp pp pp
0.0000000000000000e+00 1.0000000000000000e+01
0.0000000000000000e+00 1.0000000000000000e+01
0.0000000000000000e+00 1.0000000000000000e+01
ITEM: ATOMS id type x y z vx vy vz
6 2 5.10534 5.76082 6.31703 -5.45276 -0.805066 22.7654
1 1 5.1066 5.59828 5.26546 10.7701 -3.40795 -5.17782
5 2 5.47931 6.47952 4.70471 10.1728 3.89033 -40.2475
4 2 4.78553 3.51084 5.37675 19.7987 40.8701 -22.4578
2 1 4.86564 4.40347 4.72601 -9.5226 -1.11247 7.51157
3 2 4.96307 4.22752 3.70484 -39.3846 9.9103 12.1308
ITEM: TIMESTEP
94500
ITEM: NUMBER OF ATOMS
6
ITEM: BOX BOUNDS pp pp pp
0.0000000000000000e+00 1.0000000000000000e+01
0.0000000000000000e+00 1.0000000000000000e+01
0.0000000000000000e+00 1.0000000000000000e+01
ITEM: ATOMS id type x y z vx vy vz
6 2 6.59188 4.62549 4.6908 -17.0573 -36.7794 -4.15455
1 1 5.5562 5.18703 4.69441 -4.84649 -7.15231 -4.33445
5 2 5.39944 5.91099 3.88254 -4.80526 -11.5453 -7.68945
4 2 4.34124 4.00742 5.93322 -0.951534 -21.9847 7.18449
2 1 4.45442 4.81763 5.32783 5.99645 12.8219 3.08829
3 2 3.54321 5.40017 5.2303 9.11102 2.75006 19.5088
ITEM: TIMESTEP
94600
ITEM: NUMBER OF ATOMS
6
ITEM: BOX BOUNDS pp pp pp
0.0000000000000000e+00 1.0000000000000000e+01
0.0000000000000000e+00 1.0000000000000000e+01
0.0000000000000000e+00 1.0000000000000000e+01
ITEM: ATOMS id type x y z vx vy vz
6 2 4.32332 3.83481 4.35163 -21.9689 48.2721 -13.1675
1 1 5.00946 4.63791 4.43553 -5.20547 -2.65311 10.7814
5 2 5.72462 4.85875 3.59174 -35.9201 -18.8511 6.11897
4 2 4.16298 5.26154 6.33697 -8.18853 7.86896 -16.4204
2 1 4.99123 5.36034 5.55754 7.4303 -1.747 -8.41745
3 2 5.78328 6.06536 5.80403 39.5663 15.1421 -4.7
ITEM: TIMESTEP
94700
ITEM: NUMBER OF ATOMS
6
ITEM: BOX BOUNDS pp pp pp
0.0000000000000000e+00 1.0000000000000000e+01
0.0000000000000000e+00 1.0000000000000000e+01
0.0000000000000000e+00 1.0000000000000000e+01
ITEM: ATOMS id type x y z vx vy vz
6 2 3.46451 5.23602 4.68247 1.50726 2.08836 -21.623
1 1 4.41108 4.68478 4.91678 2.35398 7.91897 10.463
5 2 4.26093 3.70477 5.18828 6.44493 7.01576 29.7577
4 2 5.73174 6.34822 4.78028 37.4302 -15.4159 -13.0301
2 1 5.60039 5.32113 5.07417 -3.45281 -6.75925 -7.08355
3 2 6.40848 4.64014 5.45861 -32.2886 -7.50748 -35.3745
ITEM: TIMESTEP
94800
ITEM: NUMBER OF ATOMS
6
ITEM: BOX BOUNDS pp pp pp
0.0000000000000000e+00 1.0000000000000000e+01
0.0000000000000000e+00 1.0000000000000000e+01
0.0000000000000000e+00 1.0000000000000000e+01
ITEM: ATOMS id type x y z vx vy vz
6 2 3.79864 5.98629 5.02001 14.1864 -8.21289 -13.6398
1 1 4.58693 5.384 5.39861 6.92352 2.49599 0.728498
5 2 5.08853 5.4907 6.45574 35.2361 29.4276 -24.1681
4 2 5.2119 4.4681 3.53966 -11.7302 -12.1054 9.64819
2 1 5.38126 4.60452 4.60117 -10.616 -0.0109845 2.81967
3 2 6.28239 4.19131 4.98896 6.30806 -38.7209 -14.1205
ITEM: TIMESTEP
94900
ITEM: NUMBER OF ATOMS
6
ITEM: BOX BOUNDS pp pp pp
0.0000000000000000e+00 1.0000000000000000e+01
0.0000000000000000e+00 1.0000000000000000e+01
0.0000000000000000e+00 1.0000000000000000e+01
ITEM: ATOMS id type x y z vx vy vz
6 2 4.89233 6.16167 5.94858 49.4258 2.49648 -7.5042
1 1 5.31754 5.59732 5.05884 4.48432 -5.12333 -2.2926
5 2 6.1325 5.89503 4.5008 -32.5941 -7.17035 -33.5726
4 2 3.75993 4.26764 5.53358 -13.1871 23.6606 20.872
2 1 4.70628 4.40794 4.93149 -5.28383 2.7214 4.12052
3 2 4.93384 3.61253 4.134 5.88252 9.63482 -1.57688
ITEM: TIMESTEP
95000
ITEM: NUMBER OF ATOMS
6
ITEM: BOX BOUNDS pp pp pp
0.0000000000000000e+00 1.0000000000000000e+01
0.0000000000000000e+00 1.0000000000000000e+01
0.0000000000000000e+00 1.0000000000000000e+01
ITEM: ATOMS id type x y z vx vy vz
6 2 6.47663 4.72243 4.74276 11.6314 -48.099 -9.47221
1 1 5.51223 5.02129 4.57786 -6.12511 -6.18692 -3.969
5 2 5.2828 5.3447 3.52302 -10.8496 16.8139 3.51999
4 2 4.68948 4.81156 6.52127 6.9395 48.3851 -18.0661
2 1 4.49135 4.97401 5.43724 2.58327 2.7935 5.33149
3 2 3.51083 5.17696 5.03475 34.4835 23.3362 7.7827
ITEM: TIMESTEP
95100
ITEM: NUMBER OF ATOMS
6
ITEM: BOX BOUNDS pp pp pp
0.0000000000000000e+00 1.0000000000000000e+01
0.0000000000000000e+00 1.0000000000000000e+01
0.0000000000000000e+00 1.0000000000000000e+01
ITEM: ATOMS id type x y z vx vy vz
6 2 4.55769 3.49086 5.0659 -22.1679 5.15011 24.4834
1 1 4.77271 4.53651 4.57594 -6.25563 -0.323292 7.68156
5 2 4.69805 4.71412 3.51472 -11.4207 8.3692 -21.5471
4 2 5.46628 5.1781 6.37051 13.7363 -1.41868 -0.357936
2 1 5.2355 5.47091 5.41 4.69056 -1.97472 -7.67664
3 2 5.18256 6.52811 5.21811 38.5019 15.2827 -2.63695
ITEM: TIMESTEP
95200
ITEM: NUMBER OF ATOMS
6
ITEM: BOX BOUNDS pp pp pp
0.0000000000000000e+00 1.0000000000000000e+01
0.0000000000000000e+00 1.0000000000000000e+01
0.0000000000000000e+00 1.0000000000000000e+01
ITEM: ATOMS id type x y z vx vy vz
6 2 3.88068 5.60224 5.80481 -10.2111 4.96175 -10.3844
1 1 4.34656 4.93414 5.10642 1.72245 6.60585 2.85102
5 2 3.76782 4.1451 4.48052 8.22015 22.6407 33.0742
4 2 6.30544 5.77773 5.54035 22.034 22.147 -22.085
2 1 5.64871 5.05003 4.9089 -0.763587 -8.17783 -1.45309
3 2 6.10487 4.66319 3.99351 -31.469 -31.0176 -17.2626
ITEM: TIMESTEP
95300
ITEM: NUMBER OF ATOMS
6
ITEM: BOX BOUNDS pp pp pp
0.0000000000000000e+00 1.0000000000000000e+01
0.0000000000000000e+00 1.0000000000000000e+01
0.0000000000000000e+00 1.0000000000000000e+01
ITEM: ATOMS id type x y z vx vy vz
6 2 4.64932 6.52731 5.10753 30.3539 -16.6163 -6.30839
1 1 4.80766 5.49132 5.38902 7.75819 2.94835 -1.42594
5 2 4.58948 5.30583 6.37676 3.14659 36.7868 1.51927
4 2 5.62864 4.75139 3.64636 -64.5182 -0.664538 5.5743
2 1 5.18488 4.50524 4.59554 -5.11728 -4.55778 2.21031
3 2 5.22386 3.45603 5.05517 -0.451533 -0.32789 -10.1318
ITEM: TIMESTEP
95400
ITEM: NUMBER OF ATOMS
6
ITEM: BOX BOUNDS pp pp pp
0.0000000000000000e+00 1.0000000000000000e+01
0.0000000000000000e+00 1.0000000000000000e+01
0.0000000000000000e+00 1.0000000000000000e+01
ITEM: ATOMS id type x y z vx vy vz
6 2 5.20227 6.31872 4.44424 -2.09497 18.9401 -30.0899
1 1 5.51456 5.4139 4.93316 2.00951 -7.66958 -8.3273
5 2 6.56313 5.27472 5.28626 8.32749 -21.6951 4.96845
4 2 3.60121 4.83958 4.47446 -24.3607 4.22269 32.5248
2 1 4.4944 4.577 5.08635 1.55732 7.41349 9.32994
3 2 4.52908 3.67505 5.56432 -24.3744 1.58382 -19.351
ITEM: TIMESTEP
95500
ITEM: NUMBER OF ATOMS
6
ITEM: BOX BOUNDS pp pp pp
0.0000000000000000e+00 1.0000000000000000e+01
0.0000000000000000e+00 1.0000000000000000e+01
0.0000000000000000e+00 1.0000000000000000e+01
ITEM: ATOMS id type x y z vx vy vz
6 2 5.96782 5.53257 3.87942 -25.386 -26.5785 -21.8578
1 1 5.30261 4.80222 4.43221 -9.18589 -4.08653 2.64599
5 2 5.02237 3.80291 4.08709 2.6 -8.22973 -5.60829
4 2 4.87084 6.12172 6.04509 27.7897 6.03558 18.1454
2 1 4.71004 5.20552 5.56005 12.5017 5.21259 -0.0455002
3 2 3.99057 4.45019 6.08238 -44.5156 15.3544 -21.6669
ITEM: TIMESTEP
95600
ITEM: NUMBER OF ATOMS
6
ITEM: BOX BOUNDS pp pp pp
0.0000000000000000e+00 1.0000000000000000e+01
0.0000000000000000e+00 1.0000000000000000e+01
0.0000000000000000e+00 1.0000000000000000e+01
ITEM: ATOMS id type x y z vx vy vz
6 2 4.97288 3.58279 4.42121 -9.8996 4.82692 -12.2055
1 1 4.6196 4.55721 4.67663 -6.61939 2.69801 8.7364
5 2 3.63626 4.81368 4.27743 -6.38127 -23.5918 6.35824
4 2 6.38886 4.97692 5.70948 -20.3958 -19.6143 -0.850433
2 1 5.38469 5.46094 5.32525 5.073 -0.450976 -5.34614
3 2 4.95324 6.40997 5.57126 55.1036 11.6034 -33.7009
ITEM: TIMESTEP
95700
ITEM: NUMBER OF ATOMS
6
ITEM: BOX BOUNDS pp pp pp
0.0000000000000000e+00 1.0000000000000000e+01
0.0000000000000000e+00 1.0000000000000000e+01
0.0000000000000000e+00 1.0000000000000000e+01
ITEM: ATOMS id type x y z vx vy vz
6 2 4.27831 4.67381 6.33614 5.5654 -6.57395 11.2554
1 1 4.40139 5.08742 5.30094 0.211756 10.2486 6.98216
5 2 3.66881 5.78692 4.86115 14.821 21.5886 -9.56343
4 2 6.37322 4.4861 5.23019 8.85064 31.6757 -37.3251
2 1 5.59753 4.89402 4.69381 -2.52699 -11.165 -3.94557
3 2 5.6949 5.27383 3.63689 -1.64853 -35.7703 -0.551025
ITEM: TIMESTEP
95800
ITEM: NUMBER OF ATOMS
6
ITEM: BOX BOUNDS pp pp pp
0.0000000000000000e+00 1.0000000000000000e+01
0.0000000000000000e+00 1.0000000000000000e+01
0.0000000000000000e+00 1.0000000000000000e+01
ITEM: ATOMS id type x y z vx vy vz
6 2 6.02644 6.09588 5.48411 -4.88381 -9.25753 -32.683
1 1 5.07718 5.60635 5.28689 7.74882 3.20379 -2.24931
5 2 4.11044 6.13309 5.27738 26.4511 27.8486 10.6784
4 2 5.76282 3.733 4.39996 10.8682 -12.288 -17.7247
2 1 4.93118 4.39733 4.72635 -8.795 -1.78693 3.64869
3 2 4.00309 3.99383 4.68256 -19.9692 -23.1865 23.0542
ITEM: TIMESTEP
95900
ITEM: NUMBER OF ATOMS
6
ITEM: BOX BOUNDS pp pp pp
0.0000000000000000e+00 1.0000000000000000e+01
0.0000000000000000e+00 1.0000000000000000e+01
0.0000000000000000e+00 1.0000000000000000e+01
ITEM: ATOMS id type x y z vx vy vz
6 2 5.66297 5.3555 3.67867 4.30414 40.7733 -23.2181
1 1 5.5403 5.30897 4.76271 2.9284 -12.4585 -5.41008
5 2 6.30069 5.76578 5.33432 4.20953 -5.022 -24.8766
4 2 3.67261 4.47389 4.5432 -24.8514 11.8227 10.6489
2 1 4.46061 4.68837 5.24209 -1.17381 7.79028 5.50581
3 2 4.35534 4.43612 6.38834 -4.57022 8.05285 36.3051
ITEM: TIMESTEP
96000
ITEM: NUMBER OF ATOMS
6
ITEM: BOX BOUNDS pp pp pp
0.0000000000000000e+00 1.0000000000000000e+01
0.0000000000000000e+00 1.0000000000000000e+01
0.0000000000000000e+00 1.0000000000000000e+01
ITEM: ATOMS id type x y z vx vy vz
6 2 4.79644 4.817 3.43662 13.3539 -1.68315 3.23134
1 1 5.14912 4.63313 4.45725 -10.1681 -5.38442 -0.775148
5 2 5.5512 3.59307 4.66861 -20.5722 -21.937 18.9486
3 2 5.14452 4.91695 6.49067 13.7131 34.3017 -23.2392
4 2 4.45084 6.49296 5.54144 25.9587 -0.751704 36.5424
2 1 4.85586 5.38194 5.53137 7.44456 4.5511 -2.2026
ITEM: TIMESTEP
96100
ITEM: NUMBER OF ATOMS
6
ITEM: BOX BOUNDS pp pp pp
0.0000000000000000e+00 1.0000000000000000e+01
0.0000000000000000e+00 1.0000000000000000e+01
0.0000000000000000e+00 1.0000000000000000e+01
ITEM: ATOMS id type x y z vx vy vz
6 2 4.10433 4.50689 3.83299 -13.2969 -17.7331 14.6381
1 1 4.39979 4.6669 4.88541 -4.83872 1.51334 8.20238
5 2 3.75119 4.6073 5.73673 -14.7406 46.2218 -34.7355
3 2 5.91464 5.72138 6.07997 38.3501 -12.4719 -8.83789
4 2 6.25101 5.56055 4.35776 -14.3158 -18.5168 3.0849
2 1 5.59863 5.29982 5.11411 5.17467 -1.30354 -6.03301
ITEM: TIMESTEP
96200
ITEM: NUMBER OF ATOMS
6
ITEM: BOX BOUNDS pp pp pp
0.0000000000000000e+00 1.0000000000000000e+01
0.0000000000000000e+00 1.0000000000000000e+01
0.0000000000000000e+00 1.0000000000000000e+01
ITEM: ATOMS id type x y z vx vy vz
6 2 3.92127 4.68184 5.9722 -9.71169 49.4084 46.3999
1 1 4.49406 5.30094 5.33572 6.59787 1.7982 5.35857
5 2 4.27427 6.37224 5.41409 -17.4026 29.3213 -26.9923
3 2 6.14613 5.23775 3.97878 -3.2535 10.1789 -15.0462
4 2 5.52774 3.58096 4.67427 -16.7551 -36.6223 -7.60005
2 1 5.5171 4.7097 4.66112 -2.64331 -6.18608 -5.08678
ITEM: TIMESTEP
96300
ITEM: NUMBER OF ATOMS
6
ITEM: BOX BOUNDS pp pp pp
0.0000000000000000e+00 1.0000000000000000e+01
0.0000000000000000e+00 1.0000000000000000e+01
0.0000000000000000e+00 1.0000000000000000e+01