LAMMPS data file via write_data, version 2 Aug 2023, timestep = 131000, units = metal

6 atoms
2 atom types

0 10 xlo xhi
0 10 ylo yhi
0 10 zlo zhi

Masses

1 12.0107
2 1.00794

Atoms # atomic

2 1 4.969814672851471 4.4724050469836785 4.576531534096841 0 0 0
4 2 4.481396547765505 4.619123390263891 3.594744900624537 0 0 0
3 2 5.249749459434947 3.3573105312373244 4.850233842229715 0 0 0
6 2 4.759488075894814 6.549091187144138 5.1895643476929445 0 0 0
5 2 5.322591779729458 5.397892463801635 6.512962173050102 0 0 0
1 1 5.046059287399209 5.533987974675869 5.411238285843219 0 0 0

Velocities

2 -6.191325781051203 -0.8908008706648247 3.1234483089697327
4 -49.89276907622196 1.4285179984016079 28.97932010580317
3 3.0027369449768453 0.9123591678200391 0.8866471650447787
6 44.14418035402214 0.001345173823964041 -42.401907906969726
5 -1.688492029955478 -14.216624897274057 4.2702326338089245
1 6.563456672423668 1.8873027659360213 -2.4297886784860383
