ITEM: TIMESTEP
49600
ITEM: NUMBER OF ATOMS
6
ITEM: BOX BOUNDS pp pp pp
0.0000000000000000e+00 1.0000000000000000e+01
0.0000000000000000e+00 1.0000000000000000e+01
0.0000000000000000e+00 1.0000000000000000e+01
ITEM: ATOMS id type x y z vx vy vz
6 2 4.54988 4.47237 3.60016 -13.1622 2.11143 -4.41343
1 1 5.21179 4.85299 4.38519 -2.27386 -0.832802 1.33765
5 2 6.23966 5.02918 4.09735 14.6701 -17.2867 -9.86409
4 2 3.75701 4.98493 5.89188 -17.36 13.3313 4.84724
2 1 4.79054 5.14459 5.6153 2.17714 0.831786 -0.489249
3 2 5.42808 5.54194 6.40661 17.0046 1.85606 -0.679361
ITEM: TIMESTEP
49700
ITEM: NUMBER OF ATOMS
6
ITEM: BOX BOUNDS pp pp pp
0.0000000000000000e+00 1.0000000000000000e+01
0.0000000000000000e+00 1.0000000000000000e+01
0.0000000000000000e+00 1.0000000000000000e+01
ITEM: ATOMS id type x y z vx vy vz
6 2 4.27249 4.98476 3.60577 5.60982 0.139622 -2.71071
1 1 4.94022 4.66853 4.42905 -4.38581 -0.962193 0.481607
5 2 5.56219 3.77525 4.18987 -16.8821 4.78135 12.5337
4 2 4.43221 6.22324 5.80741 16.5616 -3.53619 -12.0082
2 1 5.05791 5.33366 5.57373 4.06623 0.657529 -0.460564
3 2 5.75794 4.99024 6.36565 -1.48129 2.24561 1.93438
ITEM: TIMESTEP
49800
ITEM: NUMBER OF ATOMS
6
ITEM: BOX BOUNDS pp pp pp
0.0000000000000000e+00 1.0000000000000000e+01
0.0000000000000000e+00 1.0000000000000000e+01
0.0000000000000000e+00 1.0000000000000000e+01
ITEM: ATOMS id type x y z vx vy vz
6 2 4.40319 4.98673 3.61112 10.7559 -0.545331 4.24862
1 1 4.62539 4.62759 4.58781 -3.7548 1.05462 3.00757
5 2 4.21871 3.67315 4.8541 -10.9959 -2.65318 7.40623
4 2 5.7644 6.33847 5.15828 13.3016 -1.29515 -3.33304
2 1 5.37485 5.3705 5.41135 2.98086 -1.16624 -3.40432
3 2 5.61331 5.02401 6.38838 -3.83927 5.82367 -3.5942
ITEM: TIMESTEP
49900
ITEM: NUMBER OF ATOMS
6
ITEM: BOX BOUNDS pp pp pp
0.0000000000000000e+00 1.0000000000000000e+01
0.0000000000000000e+00 1.0000000000000000e+01
0.0000000000000000e+00 1.0000000000000000e+01
ITEM: ATOMS id type x y z vx vy vz
6 2 4.23778 4.37631 3.7485 -6.79105 -10.2847 -1.58099
1 1 4.41542 4.75753 4.79138 -0.12951 2.84401 3.19018
5 2 3.54418 4.79765 5.46423 -5.18892 11.0439 3.46121
4 2 6.46093 5.23529 4.5414 5.95678 -13.6152 -5.31258
2 1 5.58345 5.23967 5.209 0.695385 -2.60252 -3.03984
3 2 5.77312 5.62373 6.2432 -0.719832 9.97837 1.64093
ITEM: TIMESTEP
50000
ITEM: NUMBER OF ATOMS
6
ITEM: BOX BOUNDS pp pp pp
0.0000000000000000e+00 1.0000000000000000e+01
0.0000000000000000e+00 1.0000000000000000e+01
0.0000000000000000e+00 1.0000000000000000e+01
ITEM: ATOMS id type x y z vx vy vz
6 2 3.82491 4.0338 4.81975 -2.33294 14.5665 10.5424
4 2 6.29477 4.17043 4.77328 -17.1454 0.19306 11.1226
2 1 5.66815 5.04108 4.98484 0.419931 -0.519052 -2.99236
1 1 4.33529 4.95803 5.01735 -0.257016 0.613676 3.3576
5 2 3.68722 5.82416 5.2037 14.6645 -3.64858 -11.3173
3 2 6.15457 5.98182 5.17893 2.87249 -12.2385 -14.7
ITEM: TIMESTEP
50100
ITEM: NUMBER OF ATOMS
6
ITEM: BOX BOUNDS pp pp pp
0.0000000000000000e+00 1.0000000000000000e+01
0.0000000000000000e+00 1.0000000000000000e+01
0.0000000000000000e+00 1.0000000000000000e+01
ITEM: ATOMS id type x y z vx vy vz
6 2 3.93522 4.73342 6.08344 8.73981 0.337984 10.5921
4 2 6.10208 3.94415 5.22047 14.6102 -9.858 5.7746
2 1 5.59748 4.79315 4.78049 -3.96519 -2.9896 -0.19513
1 1 4.40203 5.20756 5.21885 3.31052 3.25791 1.04062
5 2 3.89397 6.05449 4.78816 -8.64889 13.15 -11.4484
3 2 6.07706 5.25909 3.91764 -6.90007 -6.8272 -14.9933
ITEM: TIMESTEP
50200
ITEM: NUMBER OF ATOMS
6
ITEM: BOX BOUNDS pp pp pp
0.0000000000000000e+00 1.0000000000000000e+01
0.0000000000000000e+00 1.0000000000000000e+01
0.0000000000000000e+00 1.0000000000000000e+01
ITEM: ATOMS id type x y z vx vy vz
6 2 4.87565 5.84241 6.33213 10.301 10.9809 -5.61378
4 2 6.23276 4.06027 5.1954 -11.465 7.02498 -4.17442
2 1 5.35822 4.53242 4.69168 -1.91566 -1.63529 -0.746493
1 1 4.63928 5.4681 5.31158 2.1702 1.51428 0.168646
5 2 3.7909 5.93388 4.76412 11.5021 -4.26563 7.76976
3 2 5.13296 4.15684 3.67131 -13.3711 -12.2982 8.90411
ITEM: TIMESTEP
50300
ITEM: NUMBER OF ATOMS
6
ITEM: BOX BOUNDS pp pp pp
0.0000000000000000e+00 1.0000000000000000e+01
0.0000000000000000e+00 1.0000000000000000e+01
0.0000000000000000e+00 1.0000000000000000e+01
ITEM: ATOMS id type x y z vx vy vz
6 2 5.74614 6.26454 5.34467 -1.86121 1.31192 -15.1928
4 2 6.05426 4.0137 4.46713 -0.507637 1.03293 -7.35873
2 1 5.09289 4.3725 4.77644 -4.02153 -1.16706 0.752209
1 1 4.90722 5.62419 5.22511 3.98252 0.511053 -0.639719
5 2 3.95148 6.02624 5.51265 3.27431 4.2452 6.27626
3 2 4.2493 3.73448 4.65894 -0.440718 1.22697 14.9348
ITEM: TIMESTEP
50400
ITEM: NUMBER OF ATOMS
6
ITEM: BOX BOUNDS pp pp pp
0.0000000000000000e+00 1.0000000000000000e+01
0.0000000000000000e+00 1.0000000000000000e+01
0.0000000000000000e+00 1.0000000000000000e+01
ITEM: ATOMS id type x y z vx vy vz
6 2 5.67544 6.23443 4.27789 -0.922004 -4.16416 -17.019
4 2 4.95052 3.86294 3.94072 -19.3919 -8.71439 -3.58792
2 1 4.82205 4.36418 4.91353 -0.875995 1.40476 0.0619773
1 1 5.17929 5.63461 5.08564 1.55326 -0.744989 -0.182918
5 2 5.02855 6.13205 6.05531 14.7838 3.59221 8.31334
3 2 4.33194 3.78465 5.73782 -2.5402 1.42442 13.7347
ITEM: TIMESTEP
50500
ITEM: NUMBER OF ATOMS
6
ITEM: BOX BOUNDS pp pp pp
0.0000000000000000e+00 1.0000000000000000e+01
0.0000000000000000e+00 1.0000000000000000e+01
0.0000000000000000e+00 1.0000000000000000e+01
ITEM: ATOMS id type x y z vx vy vz
6 2 5.2388 6.17796 4.03637 2.75567 -3.13696 7.5996
4 2 3.71364 4.297 4.50256 2.84812 17.5869 16.0144
2 1 4.58906 4.49317 5.13543 -1.31863 -0.501846 3.46248
1 1 5.4125 5.51048 4.8656 1.69628 0.0763741 -3.37755
5 2 6.28198 5.68288 5.50965 -3.80006 -15.805 -18.8017
3 2 4.74941 3.79814 5.94101 -6.30386 6.42508 -5.82437
ITEM: TIMESTEP
50600
ITEM: NUMBER OF ATOMS
6
ITEM: BOX BOUNDS pp pp pp
0.0000000000000000e+00 1.0000000000000000e+01
0.0000000000000000e+00 1.0000000000000000e+01
0.0000000000000000e+00 1.0000000000000000e+01
ITEM: ATOMS id type x y z vx vy vz
6 2 5.34725 6.26006 4.20814 8.04439 7.2913 -0.706953
4 2 3.5935 5.23828 5.60435 -9.89104 17.8438 11.0539
2 1 4.52541 4.74089 5.39274 1.0679 2.40955 2.38634
1 1 5.47453 5.2598 4.61028 -1.70673 -2.66415 -1.91516
5 2 6.40379 4.76334 4.37515 8.00098 -15.9032 -15.3686
3 2 4.65862 3.72969 5.77825 1.45799 -6.19812 -0.592969
ITEM: TIMESTEP
50700
ITEM: NUMBER OF ATOMS
6
ITEM: BOX BOUNDS pp pp pp
0.0000000000000000e+00 1.0000000000000000e+01
0.0000000000000000e+00 1.0000000000000000e+01
0.0000000000000000e+00 1.0000000000000000e+01
ITEM: ATOMS id type x y z vx vy vz
6 2 6.04381 5.87491 4.19521 6.69352 -9.73533 6.54525
4 2 4.70067 5.79202 6.30586 3.22292 -8.04992 -3.42046
2 1 4.64126 4.968 5.55932 2.76098 3.20931 3.3974
1 1 5.35924 5.0314 4.44369 -2.1167 -3.26239 -3.70576
5 2 5.28812 4.22608 3.67995 -9.21492 6.58653 1.31534
3 2 3.9639 4.11379 5.78496 -8.37884 11.8313 -0.765684
ITEM: TIMESTEP
50800
ITEM: NUMBER OF ATOMS
6
ITEM: BOX BOUNDS pp pp pp
0.0000000000000000e+00 1.0000000000000000e+01
0.0000000000000000e+00 1.0000000000000000e+01
0.0000000000000000e+00 1.0000000000000000e+01
ITEM: ATOMS id type x y z vx vy vz
6 2 6.17638 4.63547 4.11567 -8.43263 -14.447 -5.70929
4 2 5.58375 5.32506 6.37954 7.35889 -5.75502 -1.05517
2 1 4.83928 5.20351 5.61304 0.202573 2.24397 -0.0246478
1 1 5.16006 4.79632 4.38378 -0.360909 -2.65057 -0.126941
5 2 4.41225 4.68798 3.62001 -7.93544 8.7978 3.56968
3 2 3.83789 5.35309 5.92452 10.8959 16.2493 5.00113
ITEM: TIMESTEP
50900
ITEM: NUMBER OF ATOMS
6
ITEM: BOX BOUNDS pp pp pp
0.0000000000000000e+00 1.0000000000000000e+01
0.0000000000000000e+00 1.0000000000000000e+01
0.0000000000000000e+00 1.0000000000000000e+01
ITEM: ATOMS id type x y z vx vy vz
6 2 5.18104 3.57972 4.36711 -7.31008 -10.0697 2.52856
4 2 5.69313 4.95126 6.40376 0.457585 -4.90753 10.9609
2 1 5.14012 5.35176 5.54531 4.91212 0.16532 -1.48096
1 1 4.86337 4.64794 4.45483 -4.94201 0.215966 2.15119
5 2 4.30311 5.05922 3.60043 1.46272 -1.0977 -12.344
3 2 4.78359 6.41291 5.62892 5.74602 11.5315 -9.13197
ITEM: TIMESTEP
51000
ITEM: NUMBER OF ATOMS
6
ITEM: BOX BOUNDS pp pp pp
0.0000000000000000e+00 1.0000000000000000e+01
0.0000000000000000e+00 1.0000000000000000e+01
0.0000000000000000e+00 1.0000000000000000e+01
ITEM: ATOMS id type x y z vx vy vz
1 1 4.56385 4.64856 4.64245 -3.4976 0.450514 0.917589
5 2 4.41683 4.86438 3.57886 -0.169249 -7.75627 13.9764
3 2 6.07951 6.11732 4.944 5.36301 -15.5615 0.0756257
6 2 3.90294 3.89738 5.04609 -1.50952 16.6764 3.82643
4 2 5.5627 5.1095 6.42366 -1.64061 12.5616 -15.1185
2 1 5.43955 5.35236 5.35832 3.3261 -0.947345 -1.1492
ITEM: TIMESTEP
51100
ITEM: NUMBER OF ATOMS
6
ITEM: BOX BOUNDS pp pp pp
0.0000000000000000e+00 1.0000000000000000e+01
0.0000000000000000e+00 1.0000000000000000e+01
0.0000000000000000e+00 1.0000000000000000e+01
ITEM: ATOMS id type x y z vx vy vz
1 1 4.38022 4.80381 4.84168 -0.776524 2.28502 4.79517
5 2 4.1716 4.1786 3.98769 -2.7066 -10.0157 -8.18068
3 2 6.4686 4.87788 4.56908 8.89957 -13.2587 4.67565
6 2 3.53155 5.13194 5.43628 -9.93087 14.367 -0.901123
4 2 5.85641 5.82295 6.00429 9.23756 14.7452 3.04103
2 1 5.61762 5.1952 5.1587 0.314992 -2.77493 -4.68061
ITEM: TIMESTEP
51200
ITEM: NUMBER OF ATOMS
6
ITEM: BOX BOUNDS pp pp pp
0.0000000000000000e+00 1.0000000000000000e+01
0.0000000000000000e+00 1.0000000000000000e+01
0.0000000000000000e+00 1.0000000000000000e+01
ITEM: ATOMS id type x y z vx vy vz
1 1 4.3378 5.00809 5.06551 0.450708 -0.13716 3.30663
5 2 3.74502 4.08012 5.24243 -6.20138 19.0453 8.31503
3 2 6.23776 4.03392 4.95496 -7.43896 -4.4057 8.00233
6 2 3.77201 5.96879 5.07315 4.59206 2.11101 -6.43083
4 2 6.2607 5.90967 4.76222 0.199242 -14.2126 -12.7672
2 1 5.6611 4.99251 4.93189 0.291906 -0.0758272 -3.06489
ITEM: TIMESTEP
51300
ITEM: NUMBER OF ATOMS
6
ITEM: BOX BOUNDS pp pp pp
0.0000000000000000e+00 1.0000000000000000e+01
0.0000000000000000e+00 1.0000000000000000e+01
0.0000000000000000e+00 1.0000000000000000e+01
ITEM: ATOMS id type x y z vx vy vz
1 1 4.44719 5.28026 5.25384 1.36737 3.04483 -0.222471
5 2 4.13159 5.0613 6.25995 11.7226 11.8201 7.2977
3 2 6.14867 4.01592 5.27457 -0.799806 2.37207 -4.36523
6 2 3.85854 6.00245 4.74687 1.45755 -3.75308 6.88547
4 2 5.84322 4.95965 3.73474 -9.35384 -14.9176 -4.85253
2 1 5.55453 4.7164 4.74496 -1.62135 -2.66899 -0.194227
ITEM: TIMESTEP
51400
ITEM: NUMBER OF ATOMS
6
ITEM: BOX BOUNDS pp pp pp
0.0000000000000000e+00 1.0000000000000000e+01
0.0000000000000000e+00 1.0000000000000000e+01
0.0000000000000000e+00 1.0000000000000000e+01
ITEM: ATOMS id type x y z vx vy vz
1 1 4.71351 5.52634 5.2978 2.1585 0.0911036 -0.602904
5 2 5.16213 6.05428 6.14778 19.4908 11.331 -5.05443
3 2 6.29347 4.12548 5.03687 6.45883 -8.48694 -6.70519
6 2 3.7118 5.88764 4.94653 -7.39266 5.8755 -0.0507863
4 2 4.85401 3.92421 3.85381 -13.716 -12.9793 1.85659
2 1 5.2849 4.47433 4.70362 -2.56475 0.266371 1.43823
ITEM: TIMESTEP
51500
ITEM: NUMBER OF ATOMS
6
ITEM: BOX BOUNDS pp pp pp
0.0000000000000000e+00 1.0000000000000000e+01
0.0000000000000000e+00 1.0000000000000000e+01
0.0000000000000000e+00 1.0000000000000000e+01
ITEM: ATOMS id type x y z vx vy vz
1 1 4.97292 5.64291 5.19461 4.19205 1.70148 -2.16224
5 2 5.81417 6.33087 5.00816 -14.516 -3.76051 -5.96516
3 2 5.8458 3.94246 4.2268 -15.7784 8.23035 -3.13859
6 2 4.13958 6.02414 5.76644 18.0097 -3.3274 4.02776
4 2 4.19737 3.67034 5.00812 9.20107 8.24169 4.74465
2 1 5.02754 4.35976 4.80475 -3.93327 -2.489 2.19004
ITEM: TIMESTEP
51600
ITEM: NUMBER OF ATOMS
6
ITEM: BOX BOUNDS pp pp pp
0.0000000000000000e+00 1.0000000000000000e+01
0.0000000000000000e+00 1.0000000000000000e+01
0.0000000000000000e+00 1.0000000000000000e+01
ITEM: ATOMS id type x y z vx vy vz
1 1 5.25181 5.61931 5.04953 1.02856 -1.89615 0.440064
5 2 5.48142 6.19663 4.16753 -1.59826 4.11172 -19.5481
3 2 4.57933 3.90651 3.99163 -19.0459 -2.89111 -2.5917
6 2 5.44588 6.11657 5.99184 22.0704 2.52881 -1.46263
4 2 4.5362 3.8041 5.83971 -1.74181 0.444481 17.7953
2 1 4.7448 4.37866 4.9514 -1.00208 1.5442 0.0472692
ITEM: TIMESTEP
51700
ITEM: NUMBER OF ATOMS
6
ITEM: BOX BOUNDS pp pp pp
0.0000000000000000e+00 1.0000000000000000e+01
0.0000000000000000e+00 1.0000000000000000e+01
0.0000000000000000e+00 1.0000000000000000e+01
ITEM: ATOMS id type x y z vx vy vz
1 1 5.44439 5.45487 4.79528 1.10103 -1.14234 -3.912
5 2 5.2104 6.27735 4.08756 -0.459658 -5.21823 7.92637
3 2 3.52613 4.53765 4.77202 -3.07224 5.88327 9.99114
6 2 6.48301 5.43969 5.22164 3.60518 -14.9991 -8.20673
4 2 4.79276 3.72738 5.91865 -3.48639 3.40394 -7.4971
2 1 4.55478 4.5466 5.20488 -0.814607 2.0596 3.72622
ITEM: TIMESTEP
51800
ITEM: NUMBER OF ATOMS
6
ITEM: BOX BOUNDS pp pp pp
0.0000000000000000e+00 1.0000000000000000e+01
0.0000000000000000e+00 1.0000000000000000e+01
0.0000000000000000e+00 1.0000000000000000e+01
ITEM: ATOMS id type x y z vx vy vz
1 1 5.46258 5.20211 4.55426 -1.33597 -1.83218 -2.80258
5 2 5.49724 6.24466 4.27494 9.40045 -3.15587 1.94707
3 2 3.82552 5.44241 5.89818 13.9892 9.48309 -2.52963
6 2 6.15693 4.54402 4.10147 -14.5105 -4.29901 -3.21461
4 2 4.49308 3.76596 5.74678 -9.86171 -0.39874 -3.5148
2 1 4.53991 4.79811 5.4441 1.41842 1.69544 3.41621
ITEM: TIMESTEP
51900
ITEM: NUMBER OF ATOMS
6
ITEM: BOX BOUNDS pp pp pp
0.0000000000000000e+00 1.0000000000000000e+01
0.0000000000000000e+00 1.0000000000000000e+01
0.0000000000000000e+00 1.0000000000000000e+01
ITEM: ATOMS id type x y z vx vy vz
1 1 5.32091 4.97146 4.41781 -3.63808 -3.69924 -0.634259
5 2 6.20316 5.58641 4.19932 13.0059 -2.8146 0.722405
3 2 5.04393 5.688 6.40857 12.5697 3.69768 10.9954
6 2 4.9811 4.32295 3.57688 -10.3241 -1.39009 -11.4554
4 2 3.8133 4.38438 5.80079 -10.6536 3.35668 -7.33663
2 1 4.67581 5.03004 5.58355 3.25224 3.46009 1.22793
ITEM: TIMESTEP
52000
ITEM: NUMBER OF ATOMS
6
ITEM: BOX BOUNDS pp pp pp
0.0000000000000000e+00 1.0000000000000000e+01
0.0000000000000000e+00 1.0000000000000000e+01
0.0000000000000000e+00 1.0000000000000000e+01
ITEM: ATOMS id type x y z vx vy vz
6 2 4.33425 4.85403 3.62513 0.39812 9.71237 11.0397
1 1 5.10192 4.74789 4.39187 -1.31981 -4.17393 -0.89797
5 2 6.0171 4.22351 4.08624 -18.6355 -1.35776 6.02669
4 2 3.96379 5.75225 5.89957 22.237 4.19982 1.21677
2 1 4.90046 5.25357 5.60945 1.48642 3.92431 0.112839
3 2 5.65887 5.15243 6.37516 -5.98499 -9.58004 -8.92745
ITEM: TIMESTEP
52100
ITEM: NUMBER OF ATOMS
6
ITEM: BOX BOUNDS pp pp pp
0.0000000000000000e+00 1.0000000000000000e+01
0.0000000000000000e+00 1.0000000000000000e+01
0.0000000000000000e+00 1.0000000000000000e+01
ITEM: ATOMS id type x y z vx vy vz
6 2 4.36846 5.05638 3.58857 -1.35689 3.99073 -3.69328
1 1 4.78491 4.63263 4.48497 -3.34077 0.410699 2.2652
5 2 4.79361 3.5563 4.57502 -11.6348 -14.0016 8.22623
4 2 5.21448 6.44179 5.45549 11.5783 17.4038 -8.97465
2 1 5.21475 5.3666 5.51195 3.91083 -0.634905 -2.41718
3 2 5.62994 4.95421 6.41948 -5.37956 -4.7213 6.25279
ITEM: TIMESTEP
52200
ITEM: NUMBER OF ATOMS
6
ITEM: BOX BOUNDS pp pp pp
0.0000000000000000e+00 1.0000000000000000e+01
0.0000000000000000e+00 1.0000000000000000e+01
0.0000000000000000e+00 1.0000000000000000e+01
ITEM: ATOMS id type x y z vx vy vz
6 2 4.44723 4.67704 3.57466 -7.7064 -4.79463 2.92147
1 1 4.50548 4.68625 4.69284 -1.00015 0.626206 1.3167
5 2 3.67544 4.17094 5.21691 -1.74873 18.6741 4.13781
4 2 6.3239 5.80528 4.75462 -3.05238 -21.6808 -7.99054
2 1 5.49468 5.3153 5.30934 1.83179 -0.461104 -1.25851
3 2 5.55391 5.3279 6.42966 2.59755 5.83396 0.237839
ITEM: TIMESTEP
52300
ITEM: NUMBER OF ATOMS
6
ITEM: BOX BOUNDS pp pp pp
0.0000000000000000e+00 1.0000000000000000e+01
0.0000000000000000e+00 1.0000000000000000e+01
0.0000000000000000e+00 1.0000000000000000e+01
ITEM: ATOMS id type x y z vx vy vz
6 2 4.05709 4.02392 4.30329 4.59558 1.28008 11.1628
1 1 4.35899 4.85615 4.89125 -1.61303 2.34273 3.69003
5 2 3.56226 5.40424 5.36451 3.04691 11.0728 -6.01634
4 2 6.43947 4.57143 4.65403 1.52851 -6.46043 9.62107
2 1 5.64301 5.14587 5.10701 0.893166 -2.52534 -3.70879
3 2 5.91981 5.97591 5.70074 -0.592987 -3.71649 -14.5439
ITEM: TIMESTEP
52400
ITEM: NUMBER OF ATOMS
6
ITEM: BOX BOUNDS pp pp pp
0.0000000000000000e+00 1.0000000000000000e+01
0.0000000000000000e+00 1.0000000000000000e+01
0.0000000000000000e+00 1.0000000000000000e+01
ITEM: ATOMS id type x y z vx vy vz
6 2 3.75012 4.26649 5.6188 -3.23811 3.306 20.1277
1 1 4.34988 5.06404 5.12601 1.79087 1.15636 1.33119
5 2 3.85117 6.01427 4.89353 -0.033615 12.3679 -4.05576
4 2 6.17233 4.00719 5.11607 0.956447 -13.914 6.63059
2 1 5.64659 4.93558 4.87367 -2.17652 -0.782139 -1.83083
3 2 6.27082 5.71617 4.37717 6.91065 -6.21923 -16.7487
ITEM: TIMESTEP
52500
ITEM: NUMBER OF ATOMS
6
ITEM: BOX BOUNDS pp pp pp
0.0000000000000000e+00 1.0000000000000000e+01
0.0000000000000000e+00 1.0000000000000000e+01
0.0000000000000000e+00 1.0000000000000000e+01
ITEM: ATOMS id type x y z vx vy vz
6 2 4.38604 5.33582 6.36035 8.8331 20.412 -7.51402
1 1 4.51077 5.35312 5.27915 1.56144 1.92296 0.980024
5 2 3.77726 5.93867 4.70751 10.748 -7.72397 11.3163
4 2 6.22799 4.07353 5.29979 -14.1411 9.80666 -8.93251
2 1 5.48955 4.64686 4.72055 -1.00353 -2.90267 -0.939023
3 2 5.60739 4.65187 3.63771 -12.0881 -10.8204 4.64162
ITEM: TIMESTEP
52600
ITEM: NUMBER OF ATOMS
6
ITEM: BOX BOUNDS pp pp pp
0.0000000000000000e+00 1.0000000000000000e+01
0.0000000000000000e+00 1.0000000000000000e+01
0.0000000000000000e+00 1.0000000000000000e+01
ITEM: ATOMS id type x y z vx vy vz
6 2 5.39827 6.21466 5.87181 16.3576 2.8263 -10.529
1 1 4.77869 5.5668 5.27156 2.2149 0.229398 -2.12586
5 2 3.74201 5.84798 5.18833 -13.1973 7.99306 12.0063
4 2 6.2604 4.14697 4.82977 12.6562 -11.8423 -10.032
2 1 5.22331 4.43224 4.72541 -2.62221 0.0704011 2.22938
3 2 4.57798 3.80146 4.14807 -10.963 -2.54946 7.32123
ITEM: TIMESTEP
52700
ITEM: NUMBER OF ATOMS
6
ITEM: BOX BOUNDS pp pp pp
0.0000000000000000e+00 1.0000000000000000e+01
0.0000000000000000e+00 1.0000000000000000e+01
0.0000000000000000e+00 1.0000000000000000e+01
ITEM: ATOMS id type x y z vx vy vz
6 2 5.76094 6.33199 4.64777 0.0429471 3.58364 -6.70462
1 1 5.04559 5.6442 5.16608 2.66673 0.592776 -2.67693
5 2 4.4124 6.06022 5.97716 18.5276 -8.00482 2.21971
4 2 5.59859 3.93309 4.04221 -16.2469 2.2438 -2.02689
2 1 4.95265 4.3592 4.83413 -2.89172 -0.0686887 2.91869
3 2 4.25151 3.63378 5.33216 0.357371 -4.06768 3.63098
ITEM: TIMESTEP
52800
ITEM: NUMBER OF ATOMS
6
ITEM: BOX BOUNDS pp pp pp
0.0000000000000000e+00 1.0000000000000000e+01
0.0000000000000000e+00 1.0000000000000000e+01
0.0000000000000000e+00 1.0000000000000000e+01
ITEM: ATOMS id type x y z vx vy vz
6 2 5.30284 6.19058 4.12573 -0.017032 -1.67065 6.88018
1 1 5.32136 5.5891 4.99794 2.04153 -1.08744 -2.26319
5 2 5.81278 5.99102 5.87275 15.229 -1.56759 -12.4334
4 2 4.19648 3.98761 4.13267 -8.51935 6.4843 10.6123
2 1 4.67847 4.41191 5.00103 -3.10619 0.385005 2.08392
3 2 4.69237 3.81832 5.88296 5.99403 5.12422 -2.92286
ITEM: TIMESTEP
52900
ITEM: NUMBER OF ATOMS
6
ITEM: BOX BOUNDS pp pp pp
0.0000000000000000e+00 1.0000000000000000e+01
0.0000000000000000e+00 1.0000000000000000e+01
0.0000000000000000e+00 1.0000000000000000e+01
ITEM: ATOMS id type x y z vx vy vz
6 2 5.22168 6.32107 4.15813 -2.78538 8.68807 0.957942
1 1 5.46515 5.39583 4.73508 0.410548 -4.07711 -2.9667
5 2 6.53135 5.18363 4.86226 15.4602 -6.42136 -10.2288
4 2 3.47623 4.84551 5.11292 -15.2067 7.54877 8.02494
2 1 4.53349 4.59997 5.26579 -0.199583 4.05735 3.20852
3 2 4.78941 3.69948 5.85818 0.0179776 -9.58003 -1.63565
ITEM: TIMESTEP
53000
ITEM: NUMBER OF ATOMS
6
ITEM: BOX BOUNDS pp pp pp
0.0000000000000000e+00 1.0000000000000000e+01
0.0000000000000000e+00 1.0000000000000000e+01
0.0000000000000000e+00 1.0000000000000000e+01
ITEM: ATOMS id type x y z vx vy vz
5 2 5.8548 4.36542 3.85923 -21.3244 4.53632 10.11
6 2 5.71227 6.18244 4.30814 8.56515 -10.8812 -2.32369
1 1 5.43436 5.14949 4.51368 0.0551298 -0.993925 -3.42446
2 1 4.56441 4.8519 5.48354 0.467119 1.0048 2.79412
3 2 4.30585 3.81505 5.71824 -12.4378 12.8126 2.79663
4 2 4.14419 5.62013 6.14939 18.9738 -6.59731 -3.07167
ITEM: TIMESTEP
53100
ITEM: NUMBER OF ATOMS
6
ITEM: BOX BOUNDS pp pp pp
0.0000000000000000e+00 1.0000000000000000e+01
0.0000000000000000e+00 1.0000000000000000e+01
0.0000000000000000e+00 1.0000000000000000e+01
ITEM: ATOMS id type x y z vx vy vz
5 2 4.73298 4.47067 3.5736 -10.3532 0.166989 -18.4696
6 2 6.27862 5.23123 4.20469 2.30663 -8.47362 -1.24757
1 1 5.27382 4.91425 4.39277 -2.43053 -3.41284 0.267865
2 1 4.72739 5.08686 5.60583 2.12423 3.94003 0.400683
3 2 3.72018 4.76331 5.80133 -5.42953 7.62757 -1.31949
4 2 5.25619 5.52123 6.43889 17.126 -5.60293 13.0702
ITEM: TIMESTEP
53200
ITEM: NUMBER OF ATOMS
6
ITEM: BOX BOUNDS pp pp pp
0.0000000000000000e+00 1.0000000000000000e+01
0.0000000000000000e+00 1.0000000000000000e+01
0.0000000000000000e+00 1.0000000000000000e+01
ITEM: ATOMS id type x y z vx vy vz
5 2 4.31807 4.96749 3.60358 1.41423 2.00574 2.79132
6 2 5.75345 3.88001 4.13719 -9.14139 -10.5019 -0.129057
1 1 5.03317 4.70471 4.4063 -3.4117 -2.13771 -0.263309
2 1 4.96567 5.29724 5.59721 3.73 2.48287 0.397657
3 2 4.25048 6.1246 5.83702 9.26386 9.01578 -2.77557
4 2 5.6943 5.0043 6.38215 -5.32968 -4.63254 -1.48759
ITEM: TIMESTEP
53300
ITEM: NUMBER OF ATOMS
6
ITEM: BOX BOUNDS pp pp pp
0.0000000000000000e+00 1.0000000000000000e+01
0.0000000000000000e+00 1.0000000000000000e+01
0.0000000000000000e+00 1.0000000000000000e+01
ITEM: ATOMS id type x y z vx vy vz
5 2 4.44885 5.01289 3.55094 3.23301 1.40545 9.73655
6 2 4.43451 3.61691 4.72086 -14.7011 9.00678 6.01873
1 1 4.70142 4.62687 4.53084 -3.2503 -2.17116 1.05193
2 1 5.29639 5.37233 5.47097 2.85751 1.84193 -2.05664
3 2 5.58606 6.37404 5.25901 17.3811 -10.1057 1.19397
4 2 5.55905 5.00521 6.4495 -1.23253 3.61665 -4.97699
ITEM: TIMESTEP
53400
ITEM: NUMBER OF ATOMS
6
ITEM: BOX BOUNDS pp pp pp
0.0000000000000000e+00 1.0000000000000000e+01
0.0000000000000000e+00 1.0000000000000000e+01
0.0000000000000000e+00 1.0000000000000000e+01
ITEM: ATOMS id type x y z vx vy vz
5 2 4.40545 4.41483 3.68136 -11.3789 -12.9702 -11.476
6 2 3.56132 4.52746 5.3541 -7.07132 15.6774 9.47516
1 1 4.45439 4.72838 4.73058 -0.161943 1.15839 1.4609
2 1 5.54304 5.27227 5.26705 0.29163 -0.798802 -1.04414
3 2 6.47088 5.45977 4.68084 8.5616 -17.0023 -12.7878
4 2 5.59545 5.58976 6.31373 8.34324 10.0103 9.82252
ITEM: TIMESTEP
53500
ITEM: NUMBER OF ATOMS
6
ITEM: BOX BOUNDS pp pp pp
0.0000000000000000e+00 1.0000000000000000e+01
0.0000000000000000e+00 1.0000000000000000e+01
0.0000000000000000e+00 1.0000000000000000e+01
ITEM: ATOMS id type x y z vx vy vz
5 2 3.94059 3.93183 4.63667 3.53061 13.7871 22.3945
6 2 3.57881 5.64764 5.21536 4.1024 -0.304406 -5.69699
1 1 4.34395 4.90615 4.9505 -1.52308 2.13124 1.71769
2 1 5.65902 5.09439 5.0503 1.95257 -1.77398 -2.11369
3 2 6.39553 4.33323 4.78875 -7.79934 -2.48075 4.76151
4 2 6.05219 6.08049 5.3516 -4.9515 -15.2591 -16.7402
ITEM: TIMESTEP
53600
ITEM: NUMBER OF ATOMS
6
ITEM: BOX BOUNDS pp pp pp
0.0000000000000000e+00 1.0000000000000000e+01
0.0000000000000000e+00 1.0000000000000000e+01
0.0000000000000000e+00 1.0000000000000000e+01
ITEM: ATOMS id type x y z vx vy vz
5 2 3.81597 4.55486 5.9084 3.51652 5.77494 23.0578
6 2 3.84335 5.95172 4.74865 1.56136 5.95844 -5.03518
1 1 4.37358 5.13505 5.18904 1.31288 2.61186 0.187474
2 1 5.62738 4.86575 4.8123 -2.31935 -2.9443 0.284648
3 2 6.15801 4.04154 5.24567 4.41685 -3.50326 -2.85244
4 2 6.17368 5.44186 4.08308 2.49844 -4.26874 -20.796
ITEM: TIMESTEP
53700
ITEM: NUMBER OF ATOMS
6
ITEM: BOX BOUNDS pp pp pp
0.0000000000000000e+00 1.0000000000000000e+01
0.0000000000000000e+00 1.0000000000000000e+01
0.0000000000000000e+00 1.0000000000000000e+01
ITEM: ATOMS id type x y z vx vy vz
5 2 4.66328 5.65548 6.37292 6.96646 12.8583 -2.92716
6 2 3.68845 5.84552 4.7504 -1.3735 -4.87911 2.5869
1 1 4.57498 5.42131 5.29341 4.04299 2.16321 1.10828
2 1 5.42425 4.5833 4.70743 -4.009 -2.23774 -1.72316
3 2 6.30651 4.11949 5.23406 -0.213082 3.66339 1.77458
4 2 5.35332 4.32422 3.63445 -5.78497 -10.7546 5.8927
ITEM: TIMESTEP
53800
ITEM: NUMBER OF ATOMS
6
ITEM: BOX BOUNDS pp pp pp
0.0000000000000000e+00 1.0000000000000000e+01
0.0000000000000000e+00 1.0000000000000000e+01
0.0000000000000000e+00 1.0000000000000000e+01
ITEM: ATOMS id type x y z vx vy vz
5 2 5.59419 6.3221 5.50485 -0.163755 -6.71408 -11.0931
6 2 3.82726 5.89985 5.43093 13.1752 3.41677 15.868
1 1 4.83481 5.59463 5.25491 1.25162 1.04938 -2.49499
2 1 5.1654 4.40369 4.7443 -0.984733 -1.53654 1.8795
3 2 6.17454 4.12072 4.59195 -10.6003 -2.36078 -11.567
4 2 4.40397 3.677 4.4836 -5.59135 11.4631 14.1263
ITEM: TIMESTEP
53900
ITEM: NUMBER OF ATOMS
6
ITEM: BOX BOUNDS pp pp pp
0.0000000000000000e+00 1.0000000000000000e+01
0.0000000000000000e+00 1.0000000000000000e+01
0.0000000000000000e+00 1.0000000000000000e+01
ITEM: ATOMS id type x y z vx vy vz
5 2 5.59287 6.33963 4.4333 3.39968 4.84783 -17.1531
6 2 4.77075 6.08179 6.0844 10.6775 -0.597553 10.2891
1 1 5.12158 5.64227 5.13136 2.53455 -2.03431 -2.11334
2 1 4.87966 4.35603 4.86811 -2.67946 2.95045 1.90113
3 2 5.24058 3.91485 3.91712 -10.3859 -2.54396 -7.16815
4 2 4.38355 3.68348 5.5734 -1.96454 -12.623 16.5609
ITEM: TIMESTEP
54000
ITEM: NUMBER OF ATOMS
6
ITEM: BOX BOUNDS pp pp pp
0.0000000000000000e+00 1.0000000000000000e+01
0.0000000000000000e+00 1.0000000000000000e+01
0.0000000000000000e+00 1.0000000000000000e+01
ITEM: ATOMS id type x y z vx vy vz
3 2 3.84073 4.16318 4.34584 -2.3496 10.4878 10.8605
5 2 5.18367 6.22645 4.09168 0.35678 -6.78001 13.1765
1 1 5.37616 5.55084 4.94135 2.10194 -1.44411 -4.34888
2 1 4.62857 4.45046 5.05837 -2.02854 1.36864 4.6852
4 2 4.76856 3.76145 5.90953 0.912701 6.6598 -17.216
6 2 6.15311 5.83295 5.65813 0.205399 -9.46833 -10.8287
ITEM: TIMESTEP
54100
ITEM: NUMBER OF ATOMS
6
ITEM: BOX BOUNDS pp pp pp
0.0000000000000000e+00 1.0000000000000000e+01
0.0000000000000000e+00 1.0000000000000000e+01
0.0000000000000000e+00 1.0000000000000000e+01
ITEM: ATOMS id type x y z vx vy vz
3 2 3.5551 5.07899 5.48591 0.820218 9.80613 13.8407
5 2 5.29596 6.30969 4.24168 -0.595295 10.0782 -0.934106
1 1 5.47765 5.33922 4.67356 0.145343 -5.55417 -1.66337
2 1 4.52014 4.66062 5.32543 -1.03675 4.91754 1.93289
4 2 4.72562 3.69446 5.76122 7.43449 -9.25303 -3.77445
6 2 6.45213 4.91837 4.52505 2.96268 -3.04507 -12.3438
ITEM: TIMESTEP
54200
ITEM: NUMBER OF ATOMS
6
ITEM: BOX BOUNDS pp pp pp
0.0000000000000000e+00 1.0000000000000000e+01
0.0000000000000000e+00 1.0000000000000000e+01
0.0000000000000000e+00 1.0000000000000000e+01
ITEM: ATOMS id type x y z vx vy vz
3 2 4.51072 5.70973 6.30294 18.6026 1.52631 5.17585
5 2 5.95988 6.03784 4.30519 3.89089 -8.72908 -1.48899
1 1 5.40134 5.09784 4.47987 -0.444929 -1.14427 -0.683194
2 1 4.59758 4.90096 5.52303 0.538746 1.56348 -0.0266581
4 2 4.03755 3.96048 5.67321 -7.96972 7.28974 7.26814
6 2 5.50715 4.3058 3.68599 -15.6417 -5.08232 -2.49635
ITEM: TIMESTEP
54300
ITEM: NUMBER OF ATOMS
6
ITEM: BOX BOUNDS pp pp pp
0.0000000000000000e+00 1.0000000000000000e+01
0.0000000000000000e+00 1.0000000000000000e+01
0.0000000000000000e+00 1.0000000000000000e+01
ITEM: ATOMS id type x y z vx vy vz
3 2 5.42334 5.36634 6.43821 0.957601 -11.5218 -3.47449
5 2 6.28822 4.8355 4.20489 -10.1579 -10.8543 0.764617
1 1 5.21999 4.86155 4.38039 -1.54572 -3.37262 -1.0544
2 1 4.78096 5.13609 5.61747 1.62359 3.52304 0.557561
4 2 3.71591 5.193 5.8064 13.1228 11.2319 -0.664305
6 2 4.56367 4.63286 3.57781 -4.85044 9.35179 9.29455
ITEM: TIMESTEP
54400
ITEM: NUMBER OF ATOMS
6
ITEM: BOX BOUNDS pp pp pp
0.0000000000000000e+00 1.0000000000000000e+01
0.0000000000000000e+00 1.0000000000000000e+01
0.0000000000000000e+00 1.0000000000000000e+01
ITEM: ATOMS id type x y z vx vy vz
3 2 5.63214 4.92301 6.41065 7.36406 -5.18466 5.24317
5 2 5.40509 3.68023 4.27332 -7.47511 -21.6485 5.81492
1 1 4.95263 4.6633 4.42634 -3.53473 1.21522 1.23459
2 1 5.04614 5.33471 5.57482 3.25674 -0.669277 -0.411879
4 2 4.6197 6.33503 5.71218 7.58817 20.9432 -10.544
6 2 4.36021 5.08492 3.59195 -4.16454 -0.615586 -10.3176
ITEM: TIMESTEP
54500
ITEM: NUMBER OF ATOMS
6
ITEM: BOX BOUNDS pp pp pp
0.0000000000000000e+00 1.0000000000000000e+01
0.0000000000000000e+00 1.0000000000000000e+01
0.0000000000000000e+00 1.0000000000000000e+01
ITEM: ATOMS id type x y z vx vy vz
3 2 5.43973 5.08146 6.48082 0.809375 0.946563 -10.2799
5 2 4.09524 3.73191 4.91332 -7.64415 21.6395 -0.787057
1 1 4.62406 4.64367 4.58403 -3.93931 -2.50189 2.33624
2 1 5.37829 5.35926 5.41701 3.34824 2.28717 -2.15454
4 2 5.91414 6.2604 5.0785 9.16466 -19.3861 1.27069
6 2 4.52533 4.89091 3.51676 4.71329 -0.641294 7.63106
ITEM: TIMESTEP
54600
ITEM: NUMBER OF ATOMS
6
ITEM: BOX BOUNDS pp pp pp
0.0000000000000000e+00 1.0000000000000000e+01
0.0000000000000000e+00 1.0000000000000000e+01
0.0000000000000000e+00 1.0000000000000000e+01
ITEM: ATOMS id type x y z vx vy vz
3 2 5.6884 5.81049 6.1166 11.2897 9.3381 -4.58939
5 2 3.52184 4.91435 5.36077 -6.17955 16.0937 11.5666
1 1 4.41665 4.76323 4.77575 -1.17396 1.51832 0.133289
2 1 5.58152 5.23486 5.22496 0.544192 -1.47992 -0.744979
4 2 6.47458 5.0954 4.64015 7.34497 -12.4974 -6.44196
6 2 4.33946 4.20209 3.87583 -4.95076 -13.392 6.75374
ITEM: TIMESTEP
54700
ITEM: NUMBER OF ATOMS
6
ITEM: BOX BOUNDS pp pp pp
0.0000000000000000e+00 1.0000000000000000e+01
0.0000000000000000e+00 1.0000000000000000e+01
0.0000000000000000e+00 1.0000000000000000e+01
ITEM: ATOMS id type x y z vx vy vz
3 2 6.14558 6.05711 4.98669 2.28116 0.179332 -15.5639
5 2 3.67307 5.83574 5.02064 2.01294 4.39187 -3.38335
1 1 4.3382 4.95584 5.01674 -0.224835 1.85426 1.61207
2 1 5.66029 5.04353 4.98586 0.987905 -1.95296 -1.51818
4 2 6.34981 4.17858 4.96108 -4.67397 -6.95327 0.0902689
6 2 3.85198 3.93571 5.00245 -8.71294 3.55821 17.7382
ITEM: TIMESTEP
54800
ITEM: NUMBER OF ATOMS
6
ITEM: BOX BOUNDS pp pp pp
0.0000000000000000e+00 1.0000000000000000e+01
0.0000000000000000e+00 1.0000000000000000e+01
0.0000000000000000e+00 1.0000000000000000e+01
ITEM: ATOMS id type x y z vx vy vz
3 2 6.00995 5.15676 3.85716 -12.9978 -12.6467 -1.06001
5 2 3.79411 5.89944 4.66972 -0.586642 -10.251 9.35141
1 1 4.41412 5.21121 5.2335 0.341647 4.80655 0.205962
2 1 5.58945 4.7895 4.76588 -0.221412 -4.22524 -0.419374
4 2 6.17073 4.08047 5.34251 -0.576409 4.78744 -7.49323
6 2 3.98506 4.85445 6.13977 12.7281 11.1834 1.74486
ITEM: TIMESTEP
54900
ITEM: NUMBER OF ATOMS
6
ITEM: BOX BOUNDS pp pp pp