LAMMPS data file via write_data, version 2 Aug 2023, timestep = 69560, units = metal

6 atoms
2 atom types

0 10 xlo xhi
0 10 ylo yhi
0 10 zlo zhi

Masses

1 12.0107
2 1.00794

Atoms # atomic

3 2 3.7545814756527065 5.565589041067811 5.7032702806856586 0 0 0
2 1 4.712329375320911 5.107261307435544 5.592088747040567 0 0 0
4 2 5.235955626718795 4.887846270519513 6.499866404376832 0 0 0
5 2 4.761347953747259 5.118765394729591 3.5060245284949203 0 0 0
1 1 5.2867500093126285 4.890639323411327 4.405275390747088 0 0 0
6 2 6.2615384918885 4.452397941916487 4.324088901681117 0 0 0

Velocities

3 16.431631836292617 9.789182019040151 5.779030101362676
2 0.13039108625686346 3.8831050385784707 -0.31077485655932013
4 6.561625240781597 -8.181717162927086 -5.482740874948741
5 -4.104236324391761 2.875802906773748 1.6608194364330204
1 -0.6300917076118672 -3.561658346065394 0.9404568811397418
6 -12.934545036956461 -8.313654283679776 -9.460453993550145
