6
Step 1
 C      6.441055      5.745165      6.024902
 H      6.585534      4.819355      6.545614
 H      6.455353      5.645460      4.972406
 C      6.190283      6.908768      6.668064
 H      5.988006      7.762987      6.003966
 H      6.115137      7.009888      7.741630
6
Step 21
 C      6.460797      5.776337      6.001983
 H      6.558036      4.810165      6.460414
 H      6.371708      5.839262      4.936752
 C      6.187591      6.869579      6.684829
 H      5.913836      7.810990      6.174774
 H      6.094920      6.861022      7.756569
6
Step 41
 C      6.462572      5.787394      5.944023
 H      6.647579      4.800544      6.372631
 H      6.461558      5.819106      4.848933
 C      6.163302      6.860936      6.734245
 H      5.936746      7.889188      6.398113
 H      6.158077      6.764619      7.807823
6
Step 61
 C      6.442059      5.850787      5.915167
 H      6.745173      4.878603      6.332798
 H      6.550805      5.935908      4.815699
 C      6.155247      6.798949      6.769926
 H      6.006975      7.814401      6.373368
 H      6.238643      6.607442      7.819285
6
Step 81
 C      6.455065      5.842670      5.876366
 H      6.788441      4.807419      6.129235
 H      6.502757      6.225676      4.824103
 C      6.154038      6.783831      6.803195
 H      5.926821      7.845019      6.587687
 H      6.180671      6.614306      7.867215
6
Step 101
 C      6.464733      5.908972      5.859542
 H      6.728335      4.827592      5.924538
 H      6.445200      6.197752      4.763187
 C      6.168427      6.740754      6.843973
 H      5.833049      7.751346      6.556325
 H      6.102877      6.418744      7.871091
6
Step 121
 C      6.480154      5.948334      5.804582
 H      6.689449      4.890224      6.063426
 H      6.366825      6.373242      4.759459
 C      6.168947      6.693244      6.869524
 H      5.784589      7.729630      6.767622
 H      6.075767      6.279653      7.868103
6
Step 141
 C      6.476141      5.983433      5.797795
 H      6.792248      4.922893      5.732079
 H      6.451199      6.375044      4.730374
 C      6.140881      6.666549      6.890839
 H      5.865132      7.727752      6.972996
 H      6.189483      6.126038      7.841960
6
Step 161
 C      6.468859      6.030395      5.754580
 H      6.834025      4.994637      5.778112
 H      6.460730      6.674276      4.830225
 C      6.128641      6.594312      6.922080
 H      5.962270      7.677517      6.912046
 H      6.272466      6.088444      7.885978
6
Step 181
 C      6.467729      6.079548      5.743289
 H      6.812577      5.063725      5.532093
 H      6.477036      6.734659      4.841773
 C      6.141354      6.544155      6.937425
 H      5.864278      7.592844      7.068482
 H      6.234061      6.036582      7.909514
6
Step 201
 C      6.482871      6.116361      5.716085
 H      6.729976      5.097511      5.446730
 H      6.409150      6.824973      4.878252
 C      6.155204      6.527978      6.973529
 H      5.702461      7.496267      7.179552
 H      6.195816      5.742726      7.741966
6
Step 221
 C      6.471539      6.197429      5.710948
 H      6.723325      5.177864      5.522684
 H      6.383888      6.906044      4.904745
 C      6.175288      6.448248      6.959792
 H      5.699801      7.360147      7.295620
 H      6.121354      5.680214      7.743211
6
Step 241
 C      6.466385      6.226984      5.679668
 H      6.871130      5.344551      5.234751
 H      6.412153      7.010641      4.947701
 C      6.145155      6.403753      7.009448
 H      5.842164      7.381431      7.358500
 H      6.219550      5.542647      7.694559
6
Step 261
 C      6.453095      6.276317      5.696649
 H      6.916063      5.434391      5.252522
 H      6.357805      7.201272      5.196331
 C      6.143273      6.339873      6.960501
 H      5.959493      7.270290      7.467822
 H      6.287532      5.522886      7.685151
6
Step 281
 C      6.456642      6.357703      5.671759
 H      6.833783      5.494779      5.151878
 H      6.388186      7.220374      5.053951
 C      6.150388      6.272611      7.009135
 H      5.861884      7.186544      7.508334
 H      6.303161      5.335287      7.579691
6
Step 301
 C      6.460183      6.400530      5.700731
 H      6.693996      5.538956      5.086455
 H      6.323269      7.320009      5.173899
 C      6.180314      6.245483      6.974955
 H      5.701180      6.933764      7.655780
 H      6.261181      5.233137      7.415923
6
Step 321
 C      6.449687      6.457621      5.688378
 H      6.706265      5.635000      4.998793
 H      6.298771      7.466539      5.351097
 C      6.190667      6.177307      6.987045
 H      5.684772      6.902525      7.620944
 H      6.282125      5.131132      7.330034
6
Step 341
 C      6.418080      6.510049      5.714961
 H      6.841719      5.911493      4.871921
 H      6.351143      7.535666      5.360299
 C      6.189134      6.100785      6.956839
 H      5.842444      6.851493      7.674076
 H      6.321146      5.098552      7.392025
6
Step 361
 C      6.409804      6.558150      5.710007
 H      6.922752      5.889932      4.962108
 H      6.250780      7.637207      5.648391
 C      6.180017      6.064354      6.935419
 H      5.973116      6.703780      7.799893
 H      6.407595      5.004761      7.149690
6
Step 381
 C      6.407093      6.617149      5.762378
 H      6.818041      6.101360      4.830348
 H      6.240118      7.667003      5.452199
 C      6.197096      6.005196      6.917789
 H      5.930012      6.518837      7.846955
 H      6.386212      4.927854      6.966325
6
Step 401
 C      6.418010      6.687659      5.769706
 H      6.656411      6.058885      4.848115
 H      6.100199      7.763290      5.730027
 C      6.224173      5.946290      6.886822
 H      5.816760      6.370039      7.815873
 H      6.340229      4.862141      6.938263
6
Step 421
 C      6.400432      6.691545      5.817173
 H      6.615227      6.429374      4.728643
 H      6.129651      7.774641      5.927691
 C      6.235873      5.912598      6.848474
 H      5.804856      6.332181      7.762056
 H      6.426990      4.851643      6.755821
6
Step 441
 C      6.364879      6.772506      5.820791
 H      6.717936      6.511580      4.775036
 H      6.235590      7.863718      6.041821
 C      6.237586      5.838063      6.820996
 H      5.913682      6.126590      7.835247
 H      6.506392      4.789546      6.760818
6
Step 461
 C      6.336170      6.792755      5.893412
 H      6.767735      6.518218      4.910347
 H      6.243396      7.863736      6.142522
 C      6.248777      5.822656      6.751572
 H      6.013627      6.011461      7.804412
 H      6.552133      4.822093      6.474658
6
Step 481
 C      6.346349      6.844139      5.907955
 H      6.671048      6.808000      4.872500
 H      6.116963      7.871521      6.238023
 C      6.265762      5.763483      6.743792
 H      5.994617      5.805185      7.810863
 H      6.467010      4.803878      6.290306
6
Step 501
 C      6.347929      6.876629      5.973970
 H      6.534450      6.872708      4.934077
 H      5.992572      7.785557      6.445798
 C      6.295068      5.743383      6.658803
 H      5.968339      5.736561      7.710801
 H      6.383873      4.728587      6.310837
6
Step 521
 C      6.328880      6.902992      6.025347
 H      6.484437      7.037560      5.003485
 H      6.039172      7.795515      6.557830
 C      6.301168      5.694468      6.615614
 H      6.012092      5.734058      7.674441
 H      6.496570      4.808002      6.030208
6
Step 541
 C      6.298341      6.933229      6.059397
 H      6.523991      7.130725      5.070071
 H      6.162309      7.791226      6.693559
 C      6.296281      5.690254      6.573995
 H      6.160716      5.282513      7.582477
 H      6.605209      4.836471      5.970515
6
Step 561
 C      6.270671      6.944920      6.143284
 H      6.533641      7.141623      5.156369
 H      6.182081      7.780907      6.815422
 C      6.319323      5.654930      6.492094
 H      6.174711      5.436887      7.559501
 H      6.612670      4.941798      5.721817
6
Step 581
 C      6.271053      6.959985      6.185245
 H      6.420183      7.420352      5.241012
 H      6.077321      7.665068      6.994894
 C      6.348350      5.650852      6.436136
 H      6.163318      5.222987      7.444736
 H      6.487518      4.849815      5.699238
6
Step 601
 C      6.271907      6.973372      6.238881
 H      6.308007      7.516935      5.302961
 H      5.987556      7.516587      7.150733
 C      6.367165      5.636520      6.384353
 H      6.183982      5.155798      7.362111
 H      6.431513      4.970441      5.504346
6
Step 621
 C      6.251008      6.953019      6.334682
 H      6.282807      7.479990      5.356801
 H      6.033067      7.621224      7.189710
 C      6.368437      5.643411      6.299127
 H      6.297935      5.096890      7.254280
 H      6.528533      5.105961      5.355677
6
Step 641
 C      6.224576      6.977671      6.372110
 H      6.289301      7.635307      5.446652
 H      6.128772      7.471182      7.376671
 C      6.364968      5.630821      6.261554
 H      6.450291      4.847990      7.014780
 H      6.628514      5.187750      5.283279
6
Step 661
 C      6.215084      6.928814      6.427586
 H      6.240973      7.766664      5.645984
 H      6.130248      7.303208      7.483423
 C      6.383144      5.653150      6.185040
 H      6.443338      5.012244      7.050622
 H      6.576466      5.351379      5.154515
6
Step 681
 C      6.205157      6.942390      6.512627
 H      6.144979      7.791792      5.733169
 H      6.046385      7.185141      7.596547
 C      6.417618      5.669857      6.101019
 H      6.432364      4.873745      6.840860
 H      6.471087      5.205092      5.113797
6
Step 701
 C      6.199868      6.903367      6.541115
 H      6.058531      7.852715      5.912352
 H      6.030810      7.077815      7.623839
 C      6.436161      5.684548      6.076196
 H      6.464847      4.800978      6.687666
 H      6.378823      5.607867      4.982689
6
Step 721
 C      6.178953      6.874355      6.624639
 H      6.052572      7.773572      5.943347
 H      6.125422      6.995556      7.707161
 C      6.430102      5.721270      6.000174
 H      6.562068      4.789863      6.528967
 H      6.510674      5.679635      4.905199
6
Step 741
 C      6.164204      6.847819      6.673401
 H      5.998141      7.863439      6.229049
 H      6.207290      6.868030      7.745691
 C      6.424992      5.746874      5.935473
 H      6.646568      4.799468      6.410155
 H      6.633369      5.705011      4.856162
6
Step 761
 C      6.168481      6.807698      6.695788
 H      5.924576      7.826578      6.397034
 H      6.190500      6.579041      7.723815
 C      6.435264      5.785914      5.903228
 H      6.652575      4.836775      6.372792
 H      6.545026      5.998555      4.836211
6
Step 781
 C      6.168452      6.771079      6.782816
 H      5.878120      7.745037      6.437961
 H      6.043812      6.583990      7.802372
 C      6.458280      5.835971      5.839244
 H      6.682762      4.789395      6.045012
 H      6.436732      5.949265      4.744871
6
Step 801
 C      6.162382      6.709990      6.799461
 H      5.896969      7.708080      6.573159
 H      6.032810      6.470478      7.808738
 C      6.470473      5.875930      5.806959
 H      6.732011      4.839007      6.009351
 H      6.309760      6.291929      4.801959
6
Step 821
 C      6.138258      6.676299      6.835666
 H      5.922458      7.702488      6.744063
 H      6.195405      6.197861      7.773366
 C      6.461330      5.926155      5.777855
 H      6.809305      4.889406      5.821397
 H      6.444434      6.309734      4.741148
6
Step 841
 C      6.132385      6.614642      6.870898
 H      5.878281      7.640185      6.975989
 H      6.275738      6.173033      7.847047
 C      6.457133      5.980836      5.716382
 H      6.794067      4.940453      5.831905
 H      6.545099      6.418762      4.708623
6
Step 861
 C      6.147536      6.562594      6.880237
 H      5.780150      7.567367      6.916375
 H      6.280417      5.958435      7.794780
 C      6.460347      6.032405      5.720132
 H      6.755102      4.973691      5.637186
 H      6.457991      6.668872      4.829966
6
Step 881
 C      6.156951      6.520198      6.922236
 H      5.708355      7.506963      7.060256
 H      6.134669      5.881169      7.858221
 C      6.477095      6.070932      5.682566
 H      6.765915      5.068204      5.341511
 H      6.351359      6.745818      4.830784
6
Step 901
 C      6.160521      6.448237      6.916953
 H      5.785933      7.457520      7.160084
 H      6.136312      5.704853      7.795883
 C      6.466513      6.146670      5.667450
 H      6.820575      5.129081      5.481130
 H      6.299189      6.853842      4.865356
6
Step 921
 C      6.136771      6.410316      6.936370
 H      5.870868      7.412202      7.342115
 H      6.295310      5.495960      7.623629
 C      6.456423      6.191321      5.659674
 H      6.905073      5.245726      5.329196
 H      6.371273      6.901200      4.848304
6
Step 941
 C      6.135429      6.352319      6.935235
 H      5.858083      7.272666      7.499443
 H      6.327273      5.526746      7.720939
 C      6.459134      6.236836      5.635598
 H      6.875265      5.306281      5.233103
 H      6.360669      7.089316      4.981177
6
Step 961
 C      6.158206      6.284468      6.942621
 H      5.761422      7.257588      7.279859
 H      6.333269      5.369427      7.594332
 C      6.454825      6.302191      5.659508
 H      6.772123      5.398293      5.122139
 H      6.327965      7.189744      5.063317
6
Step 981
 C      6.168944      6.256963      6.951528
 H      5.672650      7.016804      7.580594
 H      6.251004      5.310103      7.555474
 C      6.462264      6.338795      5.635874
 H      6.750026      5.495289      4.991929
 H      6.299121      7.272617      5.114693
6
Step 1001
 C      6.173141      6.203040      6.943293
 H      5.746366      6.982319      7.576359
 H      6.315673      5.181926      7.313466
 C      6.438981      6.395673      5.655237
 H      6.816176      5.541832      5.073082
 H      6.318464      7.347387      5.156276
6
Step 1021
 C      6.172005      6.136944      6.934179
 H      5.852382      6.907025      7.624210
 H      6.328132      5.157846      7.349452
 C      6.421872      6.449154      5.660105
 H      6.895748      5.699192      5.004746
 H      6.336605      7.433166      5.208490
6
Step 1041
 C      6.169561      6.104314      6.931211
 H      5.867031      6.786629      7.703681
 H      6.335781      5.126136      7.298475
 C      6.432224      6.473745      5.655474
 H      6.867785      5.846876      4.861652
 H      6.249711      7.524644      5.442063
6
Step 1061
 C      6.189845      6.048580      6.908346
 H      5.817703      6.755413      7.615899
 H      6.348620      5.041723      7.117210
 C      6.427360      6.531594      5.704549
 H      6.750695      5.887865      4.875033
 H      6.223361      7.562896      5.420832
6
Step 1081
 C      6.198481      6.010107      6.906828
 H      5.783232      6.473347      7.787808
 H      6.330486      4.989325      7.099369
 C      6.426946      6.588412      5.692976
 H      6.708945      5.917904      4.873062
 H      6.224813      7.636774      5.452718
6
Step 1101
 C      6.202478      5.985042      6.880520
 H      5.832307      6.496934      7.759791
 H      6.414483      4.953911      6.865813
 C      6.406028      6.594936      5.732143
 H      6.758129      6.106321      4.826536
 H      6.249561      7.674860      5.626730
6
Step 1121
 C      6.213744      5.917922      6.853589
 H      5.900545      6.451491      7.766451
 H      6.393411      4.867422      7.002524
 C      6.386673      6.658251      5.735484
 H      6.808842      6.206860      4.843359
 H      6.252332      7.748528      5.764573
6
Step 1141
 C      6.221857      5.900679      6.832498
 H      5.904883      6.319876      7.812482
 H      6.398050      4.814015      6.839973
 C      6.385033      6.677096      5.766301
 H      6.767030      6.358716      4.806397
 H      6.210072      7.762513      5.826917
6
Step 1161
 C      6.233309      5.873780      6.817074
 H      5.865968      6.204891      7.825088
 H      6.416931      4.810935      6.565287
 C      6.388794      6.714663      5.797781
 H      6.677309      6.336804      4.829011
 H      6.138665      7.781936      5.902170
6
Step 1181
 C      6.245140      5.830754      6.777263
 H      5.885517      6.020000      7.831611
 H      6.406420      4.726338      6.677380
 C      6.379964      6.767045      5.828916
 H      6.625248      6.439289      4.828338
 H      6.145541      7.841685      5.910170
6
Step 1201
 C      6.241307      5.805924      6.759818
 H      5.946419      6.125247      7.795663
 H      6.517258      4.768562      6.436575
 C      6.366069      6.767040      5.850543
 H      6.655162      6.634833      4.820419
 H      6.154620      7.805701      6.171955
6
Step 1221
 C      6.252532      5.782935      6.716616
 H      6.019224      5.875972      7.809207
 H      6.503507      4.704979      6.515922
 C      6.345183      6.809871      5.876914
 H      6.690555      6.703386      4.860242
 H      6.174029      7.829289      6.267652
6
Step 1241
 C      6.272584      5.740333      6.700773
 H      5.989299      5.854316      7.764374
 H      6.486552      4.735633      6.244891
 C      6.334030      6.843524      5.922835
 H      6.653741      6.751158      4.889544
 H      6.152324      7.893265      6.215786
6
Step 1261
 C      6.288217      5.753360      6.666713
 H      5.964836      5.651994      7.704267
 H      6.442257      4.784923      6.143831
 C      6.338203      6.848973      5.953393
 H      6.572654      6.801049      4.896736
 H      6.067909      7.802989      6.432257
6
Step 1281
 C      6.294955      5.691450      6.634733
 H      5.988976      5.651788      7.672010
 H      6.488541      4.715131      6.164891
 C      6.329595      6.897820      5.982461
 H      6.515994      7.016760      4.911331
 H      6.078746      7.847351      6.483302
6
Step 1301
 C      6.291148      5.701446      6.577305
 H      6.088493      5.653256      7.620921
 H      6.590870      4.801798      6.055359
 C      6.311497      6.886620      6.035902
 H      6.538552      7.040679      4.979306
 H      6.116737      7.775693      6.641823
6
Step 1321
 C      6.293141      5.667130      6.567016
 H      6.172659      5.383119      7.577583
 H      6.608963      4.849820      5.935850
 C      6.299076      6.934538      6.053114
 H      6.565504      7.113910      5.003251
 H      6.111719      7.778545      6.715808
6
Step 1341
 C      6.321130      5.662500      6.512168
 H      6.145690      5.396238      7.513928
 H      6.516895      4.888613      5.799666
 C      6.289711      6.926292      6.122011
 H      6.521584      7.202284      5.082552
 H      6.051251      7.815076      6.683047
6
Step 1361
 C      6.344852      5.652708      6.471767
 H      6.099204      5.338623      7.454140
 H      6.447354      4.869734      5.746306
 C      6.286760      6.959804      6.150414
 H      6.464807      7.229284      5.098476
 H      5.974219      7.618644      6.936663
6
Step 1381
 C      6.348442      5.641144      6.436512
 H      6.127816      5.240170      7.404276
 H      6.519844      4.907597      5.664580
 C      6.275723      6.950412      6.183101
 H      6.386118      7.536336      5.258237
 H      6.037961      7.665835      6.950704
6
Step 1401
 C      6.344118      5.640662      6.373467
 H      6.217196      5.202290      7.361772
 H      6.658509      5.001742      5.552290
 C      6.249927      6.973178      6.249557
 H      6.433195      7.337122      5.220303
 H      6.119561      7.591237      7.116754
6
Step 1421
 C      6.345843      5.643451      6.339963
 H      6.302002      5.013520      7.244707
 H      6.680589      5.089196      5.452178
 C      6.242235      6.963021      6.290983
 H      6.398934      7.538865      5.342891
 H      6.117456      7.625105      7.131313
6
Step 1441
 C      6.373163      5.632164      6.292634
 H      6.270518      5.015563      7.222761
 H      6.555738      5.134101      5.319712
 C      6.244649      6.979120      6.333199
 H      6.326966      7.633794      5.432222
 H      5.992551      7.469912      7.272536
6
Step 1461
 C      6.398448      5.673595      6.225363
 H      6.256752      5.004337      7.129297
 H      6.453309      5.088377      5.285804
 C      6.239971      6.957468      6.398315
 H      6.274165      7.628290      5.510821
 H      5.917464      7.335279      7.362388
6
Step 1481
 C      6.406757      5.638552      6.190053
 H      6.348177      4.860954      7.023312
 H      6.508715      5.315019      5.125493
 C      6.215549      6.970174      6.436061
 H      6.251680      7.799276      5.700028
 H      5.986988      7.386927      7.425581
6
Step 1501
 C      6.392461      5.699440      6.146435
 H      6.466602      4.797623      6.826202
 H      6.657121      5.430662      5.099668
 C      6.191265      6.935410      6.490777
 H      6.296523      7.666679      5.683234
 H      6.135766      7.194385      7.549641
6
Step 1521
 C      6.408259      5.678720      6.061047
 H      6.457407      4.848489      6.821176
 H      6.695555      5.517862      5.003220
 C      6.182266      6.931220      6.560110
 H      6.182565      7.827627      5.923644
 H      6.139468      7.234352      7.619218
6
Step 1541
 C      6.423826      5.735552      6.041477
 H      6.442338      4.767578      6.589787
 H      6.579859      5.563160      4.969553
 C      6.198622      6.909396      6.586331
 H      6.028227      7.832379      6.057915
 H      6.044842      6.896501      7.686101
6
Step 1561
 C      6.447189      5.751498      5.967154
 H      6.469552      4.807090      6.525839
 H      6.461775      5.787459      4.882241
 C      6.197780      6.884895      6.664220
 H      5.968666      7.785921      6.125695
 H      5.928380      6.832948      7.740979
6
Step 1581
 C      6.445587      5.797582      5.922764
 H      6.640948      4.781835      6.250981
 H      6.492659      5.878350      4.853460
 C      6.172335      6.832177      6.714679
 H      6.045569      7.810301      6.306869
 H      5.972152      6.877408      7.805304
6
Step 1601
 C      6.441830      5.829081      5.882722
 H      6.751791      4.848733      6.168010
 H      6.544556      6.122089      4.860932
 C      6.138585      6.812149      6.754202
 H      6.132593      7.812755      6.399299
 H      6.169706      6.486528      7.810315
6
Step 1621
 C      6.449884      5.895756      5.816984
 H      6.703005      4.911124      6.105872
 H      6.574594      6.146525      4.792634
 C      6.141088      6.742386      6.797030
 H      6.007813      7.798092      6.748815
 H      6.187414      6.512946      7.882262
6
Step 1641
 C      6.471694      5.953303      5.780739
 H      6.608969      4.910927      5.864894
 H      6.485034      6.284449      4.760204
 C      6.154274      6.712662      6.865521
 H      5.807970      7.712099      6.689576
 H      6.152982      6.191988      7.849496
6
Step 1661
 C      6.478110      6.008025      5.763607
 H      6.634143      4.966009      5.697659
 H      6.371055      6.623450      4.892878
 C      6.172060      6.641343      6.869001
 H      5.708611      7.621630      6.892143
 H      6.052025      6.145314      7.859426
6
Step 1681
 C      6.466242      6.080636      5.701800
 H      6.818309      5.077637      5.521403
 H      6.452092      6.651345      4.770824
 C      6.143095      6.575795      6.945739
 H      5.838752      7.632863      7.002508
 H      6.143204      5.970685      7.883749
6
Step 1701
 C      6.446902      6.156148      5.707709
 H      6.932586      5.188173      5.578186
 H      6.439767      6.869350      4.865040
 C      6.129680      6.501062      6.922094
 H      5.967715      7.556706      7.229777
 H      6.301078      5.770381      7.729408
6
Step 1721
 C      6.467324      6.219721      5.665516
 H      6.889511      5.243636      5.324148
 H      6.362765      7.037387      4.905728
 C      6.127869      6.446524      6.967373
 H      5.861362      7.415761      7.453581
 H      6.301959      5.643421      7.692244
6
Step 1741
 C      6.472181      6.318074      5.685520
 H      6.727313      5.367405      5.135911
 H      6.279491      7.144091      4.936276
 C      6.164413      6.353646      6.975591
 H      5.696182      7.304318      7.317353
 H      6.212570      5.521220      7.660747
6
Step 1761
 C      6.468396      6.381425      5.669005
 H      6.747505      5.442852      5.103143
 H      6.222309      7.388493      5.219994
 C      6.173814      6.295989      6.967467
 H      5.643813      7.120148      7.497889
 H      6.227647      5.381737      7.530469
6
Step 1781
 C      6.434621      6.449202      5.680564
 H      6.907689      5.739330      4.935032
 H      6.385074      7.428751      5.113863
 C      6.157981      6.226974      6.978182
 H      5.778637      6.986476      7.692488
 H      6.353177      5.254900      7.351283
6
Step 1801
 C      6.410960      6.542402      5.689402
 H      6.954739      5.736083      5.136816
 H      6.316238      7.618900      5.390487
 C      6.169202      6.139125      6.932775
 H      5.899324      6.876208      7.712746
 H      6.396850      5.175793      7.293218
6
Step 1821
 C      6.425577      6.587582      5.717067
 H      6.840556      6.101209      4.796462
 H      6.230844      7.657415      5.508707
 C      6.179943      6.087347      6.932379
 H      5.814655      6.713769      7.765457
 H      6.376048      5.072036      7.143342
6
Step 1841
 C      6.434576      6.672206      5.743695
 H      6.652806      6.161210      4.792708
 H      6.135874      7.716663      5.692492
 C      6.207009      6.020472      6.902670
 H      5.712878      6.542786      7.739517
 H      6.329453      4.973437      7.036681
6
Step 1861
 C      6.407948      6.743478      5.797759
 H      6.648755      6.223071      4.884813
 H      6.179044      7.784372      5.772754
 C      6.219510      5.962969      6.849381
 H      5.773658      6.380835      7.766180
 H      6.397023      4.903012      6.841549
6
Step 1881
 C      6.380054      6.785133      5.808837
 H      6.781378      6.560177      4.858271
 H      6.245812      7.836948      5.890191
 C      6.207317      5.914539      6.839962
 H      5.957876      6.149654      7.886067
 H      6.489625      4.884210      6.626597
6
Step 1901
 C      6.352724      6.840675      5.863332
 H      6.820043      6.592749      4.964222
 H      6.182600      7.820761      6.195105
 C      6.230648      5.871821      6.762049
 H      6.061351      6.116747      7.817490
 H      6.455295      4.806681      6.583795
6
Step 1921
 C      6.351079      6.887131      5.919413
 H      6.658658      6.881262      4.909300
 H      6.140129      7.880373      6.221125
 C      6.263741      5.813776      6.731096
 H      5.951419      6.011719      7.762167
 H      6.391866      4.760577      6.389580
6
Step 1941
 C      6.356531      6.924550      5.960108
 H      6.479075      6.898963      4.899803
 H      6.095948      7.845400      6.448970
 C      6.282597      5.806231      6.696423
 H      5.877050      5.678671      7.696590
 H      6.399048      4.810484      6.186338
6
Step 1961
 C      6.329176      6.957173      6.042620
 H      6.449727      6.964398      4.958553
 H      6.168258      7.926079      6.522365
 C      6.287398      5.762627      6.622719
 H      5.963646      5.676165      7.650634
 H      6.537158      4.852608      6.013737
6
Step 1981
 C      6.297839      6.986630      6.075682
 H      6.556586      7.247512      5.024256
 H      6.205786      7.894636      6.725116
 C      6.283356      5.732211      6.572008
 H      6.178418      5.521828      7.626842
 H      6.598237      4.820751      5.994791
6
Step 2001
 C      6.283209      6.991585      6.126672
 H      6.587008      7.324096      5.096866
 H      6.107313      7.722101      6.963815
 C      6.302381      5.734683      6.518671
 H      6.270707      5.495253      7.561064
 H      6.519561      4.908923      5.794706
6
Step 2021
 C      6.277946      7.020181      6.206543
 H      6.453391      7.441893      5.160267
 H      6.009548      7.868953      6.907496
 C      6.343180      5.699181      6.460210
 H      6.204290      5.338686      7.460758
 H      6.391005      4.939440      5.650088
6
Step 2041
 C      6.274997      7.030565      6.252325
 H      6.313443      7.415830      5.181997
 H      6.001827      7.705475      7.117429
 C      6.360496      5.714332      6.418974
 H      6.158134      5.161431      7.307953
 H      6.411195      5.055589      5.530981
6
Step 2061
 C      6.253193      7.022766      6.301338
 H      6.247194      7.645598      5.353383
 H      6.125772      7.637965      7.230836
 C      6.357035      5.699695      6.356685
 H      6.216042      5.211617      7.295956
 H      6.594671      5.161720      5.435020
6
Step 2081
 C      6.226772      7.044688      6.363856
 H      6.275416      7.708514      5.462351
 H      6.186211      7.546898      7.348359
 C      6.354431      5.700773      6.282913
 H      6.368989      5.107081      7.188381
 H      6.698257      5.067826      5.467611
6
Step 2101
 C      6.225519      7.018251      6.409591
 H      6.262018      7.712554      5.557360
 H      6.090135      7.431170      7.401893
 C      6.368692      5.717165      6.248961
 H      6.412902      5.084126      7.131266
 H      6.608053      5.360964      5.251252
6
Step 2121
 C      6.220713      7.031119      6.471326
 H      6.210797      7.764764      5.673707
 H      5.949652      7.434505      7.420466