6
Step 1
 C      6.441049      5.745164      6.024902
 H      6.585581      4.819364      6.545616
 H      6.455384      5.645467      4.972406
 C      6.190274      6.908766      6.668064
 H      5.988060      7.762999      6.003966
 H      6.115181      7.009896      7.741632
6
Step 21
 C      6.453775      5.775033      6.001812
 H      6.597126      4.816190      6.463633
 H      6.402238      5.846137      4.934898
 C      6.184383      6.868725      6.684755
 H      5.941801      7.818504      6.174351
 H      6.119388      6.866343      7.758556
6
Step 41
 C      6.447377      5.783832      5.943472
 H      6.731776      4.821867      6.373718
 H      6.526140      5.831442      4.852195
 C      6.160091      6.860336      6.734214
 H      5.975320      7.897372      6.400633
 H      6.191157      6.773176      7.807942
6
Step 61
 C      6.447763      5.851929      5.915524
 H      6.716359      4.870899      6.336356
 H      6.509631      5.930771      4.811941
 C      6.165638      6.801350      6.769923
 H      5.934060      7.799628      6.369072
 H      6.192677      6.594496      7.819430
6
Step 81
 C      6.480811      5.849654      5.878258
 H      6.680641      4.777302      6.117947
 H      6.370218      6.185482      4.814640
 C      6.163408      6.786572      6.803747
 H      5.826783      7.816691      6.583541
 H      6.108109      6.598007      7.863036
6
Step 101
 C      6.465157      5.908627      5.859685
 H      6.776555      4.839369      5.930431
 H      6.444404      6.201452      4.764045
 C      6.153511      6.736681      6.842931
 H      5.889665      7.767908      6.554634
 H      6.180854      6.437164      7.878063
6
Step 121
 C      6.456505      5.941036      5.803080
 H      6.835262      4.934667      6.075442
 H      6.486725      6.405853      4.769804
 C      6.149864      6.686944      6.866695
 H      5.883355      7.761625      6.781450
 H      6.233054      6.328104      7.886849
6
Step 141
 C      6.475209      5.981809      5.797145
 H      6.791842      4.920894      5.735491
 H      6.436223      6.369273      4.728857
 C      6.151084      6.670695      6.892448
 H      5.769316      7.699980      6.966013
 H      6.203492      6.126524      7.841339
6
Step 161
 C      6.485371      6.036327      5.757670
 H      6.762078      4.974015      5.774408
 H      6.321140      6.630577      4.816059
 C      6.155397      6.600096      6.924097
 H      5.772011      7.626961      6.884370
 H      6.173074      6.057734      7.878408
6
Step 181
 C      6.468886      6.077596      5.742723
 H      6.890253      5.090937      5.533639
 H      6.427966      6.719191      4.832541
 C      6.142549      6.544856      6.939348
 H      5.828807      7.584463      7.064421
 H      6.230773      6.041070      7.914051
6
Step 201
 C      6.475206      6.113625      5.716696
 H      6.885349      5.141332      5.477175
 H      6.408110      6.829339      4.885908
 C      6.137302      6.521505      6.968920
 H      5.777163      7.525515      7.189155
 H      6.292637      5.767295      7.751770
6
Step 221
 C      6.478200      6.201439      5.710237
 H      6.782502      5.193963      5.539828
 H      6.324732      6.878115      4.887373
 C      6.162210      6.441472      6.958389
 H      5.722861      7.369156      7.302163
 H      6.197380      5.708159      7.773567
6
Step 241
 C      6.478653      6.228192      5.683212
 H      6.857197      5.342007      5.225955
 H      6.357604      6.995321      4.940484
 C      6.141666      6.403942      7.008948
 H      5.761516      7.358343      7.344593
 H      6.288106      5.559848      7.702465
6
Step 261
 C      6.455360      6.277547      5.698008
 H      6.910179      5.428944      5.260443
 H      6.350394      7.199900      5.196794
 C      6.154212      6.340394      6.961965
 H      5.810189      7.241098      7.436790
 H      6.318562      5.532077      7.690595
6
Step 281
 C      6.459611      6.360617      5.671326
 H      6.853246      5.501760      5.156777
 H      6.344443      7.200735      5.028703
 C      6.164164      6.273368      7.014004
 H      5.739080      7.149347      7.478494
 H      6.279150      5.336342      7.595884
6
Step 301
 C      6.464398      6.397780      5.703967
 H      6.802370      5.562032      5.104708
 H      6.254955      7.307534      5.180277
 C      6.169206      6.245477      6.971918
 H      5.732391      6.948643      7.661201
 H      6.303726      5.236110      7.406226
6
Step 321
 C      6.445861      6.460501      5.687822
 H      6.881011      5.674372      5.047338
 H      6.311928      7.471253      5.339156
 C      6.161992      6.164472      6.978966
 H      5.814783      6.940761      7.654326
 H      6.387067      5.163176      7.390190
6
Step 341
 C      6.430240      6.511992      5.718819
 H      6.864743      5.913237      4.881464
 H      6.333303      7.534960      5.356079
 C      6.181857      6.098973      6.956200
 H      5.810856      6.845275      7.661153
 H      6.330574      5.098294      7.393132
6
Step 361
 C      6.444435      6.562371      5.721594
 H      6.765864      5.846209      4.913023
 H      6.157986      7.611108      5.632813
 C      6.195420      6.071560      6.939884
 H      5.770067      6.653821      7.760171
 H      6.312003      4.985949      7.100570
6
Step 381
 C      6.417141      6.626239      5.766538
 H      6.762535      6.079878      4.823701
 H      6.288948      7.671563      5.432054
 C      6.198642      5.998661      6.919253
 H      5.848812      6.512384      7.819218
 H      6.389434      4.921930      6.999976
6
Step 401
 C      6.392512      6.676166      5.764841
 H      6.818163      6.090667      4.883954
 H      6.292975      7.790626      5.819924
 C      6.208385      5.948844      6.882583
 H      5.924467      6.403354      7.839963
 H      6.429254      4.880550      6.951251
6
Step 421
 C      6.394506      6.690553      5.813154
 H      6.712631      6.455217      4.744657
 H      6.197492      7.786128      5.940604
 C      6.231327      5.911513      6.852321
 H      5.889417      6.338432      7.799731
 H      6.363592      4.839612      6.754654
6
Step 441
 C      6.393208      6.780471      5.835202
 H      6.619588      6.454905      4.773885
 H      6.152043      7.862513      5.986389
 C      6.244007      5.837044      6.821556
 H      5.905163      6.140154      7.825720
 H      6.345205      4.760944      6.721002
6
Step 461
 C      6.359755      6.788530      5.896807
 H      6.673136      6.514122      4.867893
 H      6.242546      7.850182      6.164393
 C      6.243140      5.830730      6.759011
 H      6.030416      5.991539      7.819859
 H      6.479067      4.826624      6.431302
6
Step 481
 C      6.348405      6.847534      5.907774
 H      6.633861      6.819283      4.859080
 H      6.239389      7.884137      6.258186
 C      6.258014      5.759558      6.746470
 H      6.049439      5.827463      7.825956
 H      6.455178      4.780935      6.327726
6
Step 501
 C      6.347269      6.873399      5.980144
 H      6.488802      6.838182      4.933008
 H      6.109318      7.800270      6.482308
 C      6.292773      5.746010      6.656014
 H      6.016229      5.787619      7.721559
 H      6.359100      4.726530      6.322148
6
Step 521
 C      6.328471      6.901954      6.015970
 H      6.464803      7.059384      4.992125
 H      6.146746      7.806003      6.575023
 C      6.294213      5.697032      6.631286
 H      6.101741      5.691924      7.717414
 H      6.464521      4.828604      6.013789
6
Step 541
 C      6.294935      6.933947      6.066332
 H      6.512498      7.091944      5.066217
 H      6.221414      7.810918      6.682448
 C      6.301649      5.693031      6.576134
 H      6.232707      5.316237      7.605202
 H      6.519092      4.816556      5.970044
6
Step 561
 C      6.286131      6.945061      6.146158
 H      6.416100      7.136764      5.128785
 H      6.130986      7.773906      6.817789
 C      6.336476      5.658629      6.501374
 H      6.172957      5.471073      7.571508
 H      6.450733      4.916389      5.713201
6
Step 581
 C      6.287471      6.962634      6.176753
 H      6.288093      7.446212      5.237460
 H      6.067813      7.649290      6.999117
 C      6.349323      5.652699      6.453615
 H      6.200186      5.205603      7.458587
 H      6.440231      4.851819      5.709880
6
Step 601
 C      6.257418      6.971529      6.247156
 H      6.344883      7.454971      5.286051
 H      6.152753      7.569257      7.167250
 C      6.345795      5.639149      6.382147
 H      6.337317      5.212037      7.402489
 H      6.555097      4.968228      5.533241
6
Step 621
 C      6.235675      6.955551      6.328486
 H      6.336765      7.498000      5.366522
 H      6.156153      7.650561      7.190549
 C      6.365136      5.642749      6.315000
 H      6.383497      5.076168      7.266698
 H      6.536765      5.118630      5.368156
6
Step 641
 C      6.238617      6.981842      6.367464
 H      6.171714      7.625437      5.438093
 H      6.048907      7.441759      7.375707
 C      6.394769      5.637279      6.279464
 H      6.351120      4.843961      7.029542
 H      6.448259      5.173405      5.280987
6
Step 661
 C      6.225958      6.931917      6.438231
 H      6.132900      7.726912      5.620021
 H      6.068171      7.337876      7.476178
 C      6.398757      5.658510      6.187740
 H      6.406714      5.052715      7.083178
 H      6.510725      5.294302      5.166319
6
Step 681
 C      6.187214      6.948455      6.502811
 H      6.193431      7.816310      5.746080
 H      6.161917      7.196239      7.600304
 C      6.404447      5.665964      6.122786
 H      6.556135      4.864578      6.843173
 H      6.595526      5.243020      5.131788
6
Step 701
 C      6.190187      6.904303      6.541988
 H      6.077308      7.835613      5.884657
 H      6.096521      7.110072      7.631419
 C      6.430868      5.687247      6.089051
 H      6.505324      4.815407      6.715523
 H      6.473247      5.634341      4.996433
6
Step 721
 C      6.191564      6.883313      6.633510
 H      5.984633      7.752550      5.935526
 H      6.023459      7.029639      7.705169
 C      6.443387      5.724547      6.005535
 H      6.511987      4.793734      6.552931
 H      6.464349      5.624743      4.911734
6
Step 741
 C      6.168502      6.859375      6.663760
 H      6.017806      7.882690      6.239172
 H      6.128684      6.810605      7.737020
 C      6.434103      5.747014      5.959613
 H      6.663001      4.798092      6.424618
 H      6.558042      5.719804      4.863223
6
Step 761
 C      6.155804      6.810772      6.703066
 H      6.010392      7.847406      6.391047
 H      6.185822      6.623842      7.737458
 C      6.444045      5.788516      5.910208
 H      6.674919      4.851434      6.395024
 H      6.528460      5.970061      4.831805
6
Step 781
 C      6.160286      6.774327      6.787578
 H      5.891754      7.746727      6.416919
 H      6.076812      6.620974      7.813368
 C      6.467352      5.840964      5.849618
 H      6.633412      4.785656      6.061096
 H      6.466715      5.941578      4.751161
6
Step 801
 C      6.158447      6.723206      6.794055
 H      5.877037      7.723988      6.593353
 H      6.098339      6.455959      7.799822
 C      6.466277      5.869736      5.823939
 H      6.713328      4.829991      6.016800
 H      6.414247      6.347443      4.834138
6
Step 821
 C      6.134256      6.679737      6.846401
 H      5.930199      7.710488      6.747435
 H      6.214836      6.241620      7.797293
 C      6.456243      5.930826      5.778698
 H      6.821774      4.903750      5.855234
 H      6.542931      6.283420      4.732626
6
Step 841
 C      6.139784      6.620747      6.873967
 H      5.838482      7.639712      6.945576
 H      6.181016      6.154268      7.842203
 C      6.475599      5.989287      5.730924
 H      6.738567      4.932525      5.851218
 H      6.451988      6.411810      4.707640
6
Step 861
 C      6.152078      6.579178      6.885838
 H      5.760106      7.575976      6.938767
 H      6.157163      5.930089      7.773203
 C      6.480226      6.030400      5.732826
 H      6.745371      4.972799      5.603174
 H      6.341404      6.658148      4.843507
6
Step 881
 C      6.142604      6.513191      6.930279
 H      5.811443      7.548491      7.053692
 H      6.180798      5.925208      7.893412
 C      6.464071      6.080519      5.685672
 H      6.877365      5.102659      5.406127
 H      6.435485      6.743456      4.814589
6
Step 901
 C      6.140073      6.452624      6.917118
 H      5.824253      7.473846      7.190079
 H      6.287146      5.739104      7.808619
 C      6.459769      6.145930      5.676494
 H      6.865424      5.145681      5.516812
 H      6.403481      6.898173      4.899483
6
Step 921
 C      6.144461      6.425114      6.947733
 H      5.706949      7.367619      7.343922
 H      6.274512      5.497087      7.621969
 C      6.476253      6.195662      5.670647
 H      6.799937      5.222834      5.284242
 H      6.341729      6.898595      4.858059
6
Step 941
 C      6.157379      6.349157      6.947092
 H      5.719605      7.263313      7.415022
 H      6.204406      5.521419      7.749196
 C      6.465209      6.255975      5.645982
 H      6.844926      5.298655      5.270764
 H      6.321901      7.084762      4.968752
6
Step 961
 C      6.144822      6.294327      6.948337
 H      5.807119      7.273765      7.330976
 H      6.357039      5.374947      7.587341
 C      6.446830      6.297117      5.665760
 H      6.920479      5.463286      5.126643
 H      6.365358      7.215440      5.108390
6
Step 981
 C      6.147481      6.257545      6.955464
 H      5.754730      7.039113      7.623711
 H      6.304035      5.317181      7.560119
 C      6.463372      6.348233      5.644660
 H      6.851814      5.516580      5.030839
 H      6.300232      7.274739      5.113241
6
Step 1001
 C      6.172008      6.197303      6.947925
 H      5.719212      6.983582      7.546519
 H      6.288725      5.175870      7.341746
 C      6.450987      6.419045      5.670136
 H      6.791302      5.527761      5.115907
 H      6.256038      7.327105      5.121251
6
Step 1021
 C      6.168099      6.151749      6.945984
 H      5.775509      6.877929      7.640475
 H      6.336688      5.157048      7.333027
 C      6.433659      6.446829      5.668484
 H      6.874686      5.736129      4.946389
 H      6.312986      7.450194      5.265080
6
Step 1041
 C      6.166680      6.100742      6.934040
 H      5.827821      6.790813      7.680458
 H      6.359639      5.137278      7.331226
 C      6.431797      6.489361      5.668147
 H      6.868980      5.847019      4.885556
 H      6.277375      7.543586      5.458566
6
Step 1061
 C      6.188496      6.047574      6.915364
 H      5.789379      6.741891      7.617509
 H      6.336629      5.033346      7.116961
 C      6.428681      6.549827      5.716126
 H      6.766912      5.887521      4.903738
 H      6.215531      7.565833      5.398498
6
Step 1081
 C      6.190034      6.024719      6.915882
 H      5.792735      6.436333      7.822568
 H      6.331940      4.993610      7.049023
 C      6.424614      6.588059      5.699933
 H      6.788976      5.965977      4.870606
 H      6.223466      7.643629      5.508100
6
Step 1101
 C      6.192316      5.973783      6.879026
 H      5.869440      6.529477      7.749599
 H      6.438935      4.951915      6.917508
 C      6.398515      6.616725      5.745014
 H      6.819898      6.122236      4.868431
 H      6.291901      7.697706      5.639138
6
Step 1121
 C      6.206410      5.919676      6.856219
 H      5.867460      6.439578      7.770041
 H      6.379040      4.871309      6.993608
 C      6.403545      6.671431      5.753735
 H      6.747980      6.230362      4.820923
 H      6.196526      7.748048      5.780585
6
Step 1141
 C      6.220756      5.909637      6.843878
 H      5.832950      6.261625      7.823833
 H      6.357471      4.824320      6.767848
 C      6.404079      6.688258      5.780045
 H      6.682059      6.371081      4.785238
 H      6.138340      7.752149      5.851644
6
Step 1161
 C      6.228634      5.863929      6.811808
 H      5.888459      6.216754      7.822250
 H      6.450461      4.801382      6.600231
 C      6.371976      6.736796      5.817226
 H      6.724969      6.338416      4.878867
 H      6.232302      7.824410      5.898124
6
Step 1181
 C      6.230853      5.834674      6.780853
 H      5.957867      6.015088      7.862191
 H      6.456994      4.745188      6.666555
 C      6.363861      6.771377      5.834779
 H      6.718470      6.509744      4.847995
 H      6.229071      7.852028      6.014763
6
Step 1201
 C      6.245545      5.807716      6.764782
 H      5.913268      6.106647      7.798206
 H      6.428802      4.765650      6.406777
 C      6.374894      6.780169      5.867399
 H      6.608985      6.682915      4.821671
 H      6.099207      7.796885      6.204246
6
Step 1221
 C      6.263536      5.777131      6.713517
 H      5.939609      5.865435      7.789295
 H      6.398837      4.689033      6.491913
 C      6.354319      6.833628      5.907531
 H      6.604008      6.676871      4.869753
 H      6.131487      7.861942      6.247640
6
Step 1241
 C      6.255874      5.747605      6.705726
 H      6.031939      5.800686      7.792910
 H      6.522603      4.787964      6.197621
 C      6.331760      6.848794      5.935553
 H      6.654770      6.800290      4.901419
 H      6.219542      7.889222      6.299206
6
Step 1261
 C      6.268813      5.746423      6.659102
 H      6.055641      5.665453      7.732542
 H      6.485665      4.775396      6.168505
 C      6.334264      6.866176      5.975013
 H      6.579576      6.849903      4.919796
 H      6.122220      7.821085      6.487930
6
Step 1281
 C      6.294135      5.690442      6.625005
 H      6.016889      5.672511      7.673054
 H      6.422951      4.704302      6.156633
 C      6.330265      6.911871      6.013193
 H      6.482559      7.033596      4.937604
 H      6.066152      7.855817      6.525520
6
Step 1301
 C      6.296689      5.707755      6.591124
 H      6.090297      5.581947      7.630076
 H      6.499431      4.843205      5.970527
 C      6.304342      6.895057      6.048124
 H      6.533230      7.099823      5.003800
 H      6.142288      7.760200      6.707191
6
Step 1321
 C      6.299928      5.667510      6.560196
 H      6.180229      5.366069      7.567914
 H      6.538042      4.837777      5.912550
 C      6.287895      6.949489      6.086310
 H      6.548047      7.110199      5.036264
 H      6.153231      7.818200      6.740571
6
Step 1341
 C      6.320024      5.664822      6.508104
 H      6.133701      5.406637      7.510185
 H      6.486789      4.898920      5.778972
 C      6.294937      6.936567      6.151086
 H      6.413139      7.225812      5.099878
 H      6.057060      7.809249      6.749665
6
Step 1361
 C      6.331739      5.657275      6.478549
 H      6.140527      5.295074      7.454966
 H      6.483293      4.901138      5.730478
 C      6.284564      6.968134      6.167336
 H      6.391532      7.309848      5.130266
 H      6.052837      7.581352      7.017664
6
Step 1381
 C      6.333905      5.641782      6.423643
 H      6.241864      5.254243      7.415144
 H      6.557594      4.912838      5.660280
 C      6.256350      6.961064      6.223880
 H      6.435512      7.516774      5.291114
 H      6.137051      7.707576      6.987060
6
Step 1401
 C      6.343970      5.647491      6.380761
 H      6.267335      5.166325      7.350956
 H      6.554898      5.047903      5.497440
 C      6.253179      6.978646      6.279060
 H      6.391819      7.353108      5.250820
 H      6.070790      7.580445      7.149417
6
Step 1421
 C      6.364560      5.648964      6.353851
 H      6.245816      4.973972      7.207994
 H      6.504740      5.098649      5.410976
 C      6.255742      6.972690      6.314965
 H      6.250803      7.588288      5.386784
 H      6.004138      7.572872      7.174092
6
Step 1441
 C      6.377100      5.638972      6.282940
 H      6.295042      5.077509      7.239058
 H      6.557449      5.110895      5.323899
 C      6.223221      6.980131      6.373944
 H      6.312566      7.629608      5.469994
 H      6.075495      7.477380      7.327829
6
Step 1461
 C      6.375254      5.677541      6.239632
 H      6.401274      4.965405      7.110440
 H      6.601407      5.157703      5.281625
 C      6.208455      6.958721      6.417715
 H      6.322581      7.675289      5.571088
 H      6.109026      7.320320      7.431925
6
Step 1481
 C      6.397107      5.641451      6.200776
 H      6.372161      4.832231      6.994843
 H      6.538063      5.385657      5.123482
 C      6.217422      6.973541      6.468486
 H      6.147388      7.799342      5.721346
 H      6.002747      7.381963      7.459411
6
Step 1501
 C      6.405195      5.713763      6.144270
 H      6.394129      4.825281      6.844575
 H      6.517576      5.391305      5.086791
 C      6.207317      6.932983      6.537679
 H      6.153148      7.634237      5.689307
 H      6.011368      7.195669      7.574728
6
Step 1521
 C      6.411620      5.682595      6.085711
 H      6.516640      4.825652      6.810987
 H      6.575203      5.543864      4.996376
 C      6.175415      6.936599      6.575841
 H      6.173261      7.898441      6.024588
 H      6.105393      7.135921      7.655285
6
Step 1541
 C      6.414543      5.744550      6.051189
 H      6.545380      4.793790      6.617748
 H      6.571021      5.582000      4.975317
 C      6.178390      6.901405      6.621202
 H      6.081467      7.854096      6.098940
 H      6.093972      6.887824      7.720406
6
Step 1561
 C      6.441826      5.764054      5.975668
 H      6.502555      4.812801      6.525078
 H      6.478471      5.798807      4.883728
 C      6.179862      6.872687      6.707910
 H      5.969327      7.765130      6.130533
 H      5.992087      6.883423      7.797063
6
Step 1581
 C      6.445277      5.795675      5.956918
 H      6.635502      4.758206      6.210714
 H      6.494707      5.968758      4.893320
 C      6.153103      6.833882      6.730750
 H      6.007211      7.838262      6.398857
 H      6.077814      6.812145      7.840530
6
Step 1601
 C      6.443933      5.847923      5.891465
 H      6.700020      4.857463      6.225007
 H      6.547486      6.080737      4.856373
 C      6.132228      6.799432      6.799038
 H      6.038022      7.789663      6.430703
 H      6.189369      6.470788      7.848552
6
Step 1621
 C      6.455528      5.910663      5.837834
 H      6.651293      4.898085      6.112318
 H      6.502592      6.138872      4.806444
 C      6.154120      6.732542      6.836021
 H      5.857026      7.754880      6.780346
 H      6.058787      6.489815      7.910268
6
Step 1641
 C      6.468120      5.943285      5.817011
 H      6.691015      4.908866      5.807408
 H      6.420661      6.386992      4.847289
 C      6.142092      6.714151      6.893362
 H      5.825663      7.725851      6.745304
 H      6.118006      6.125327      7.831160
6
Step 1661
 C      6.454669      6.028340      5.778069
 H      6.784220      5.023660      5.761418
 H      6.453663      6.607038      4.882065
 C      6.133436      6.600992      6.912001
 H      5.910573      7.661028      6.927822
 H      6.161088      6.223344      7.960591
6
Step 1681
 C      6.461943      6.086726      5.730326
 H      6.810391      5.081364      5.570056
 H      6.469562      6.678528      4.820567
 C      6.124835      6.564792      6.976998
 H      5.827374      7.610909      7.090540
 H      6.206918      5.913192      7.903539
6
Step 1701
 C      6.466484      6.161346      5.751520
 H      6.752305      5.143802      5.512016
 H      6.341452      6.880375      4.933897
 C      6.149036      6.505205      6.958592
 H      5.702986      7.453160      7.277203
 H      6.162109      5.660536      7.688757
6
Step 1721
 C      6.465782      6.249296      5.689890
 H      6.827875      5.252433      5.360973
 H      6.381888      7.041350      4.907863
 C      6.130500      6.404561      7.018109
 H      5.771523      7.383290      7.404487
 H      6.192278      5.645871      7.824636
6
Step 1741
 C      6.447058      6.303651      5.731013
 H      6.886037      5.454136      5.151795
 H      6.390289      7.241125      5.101668
 C      6.125289      6.337848      6.997987
 H      5.838706      7.324050      7.411837
 H      6.326601      5.485208      7.642819
6
Step 1761
 C      6.454523      6.387302      5.699798
 H      6.828302      5.480538      5.141532
 H      6.268533      7.406322      5.251744
 C      6.149605      6.274351      7.011661
 H      5.720847      7.077246      7.645564
 H      6.226131      5.334654      7.539762
6
Step 1781
 C      6.434621      6.483177      5.735144
 H      6.799179      5.680213      5.016227
 H      6.323878      7.399622      5.088269
 C      6.165406      6.188187      7.016223
 H      5.713143      6.948243      7.679509
 H      6.237076      5.189475      7.378018
6
Step 1801
 C      6.421746      6.532713      5.742654
 H      6.849756      5.760104      5.047393
 H      6.270062      7.633003      5.560709
 C      6.154469      6.131217      6.974357
 H      5.833864      6.811441      7.780790
 H      6.385839      5.137171      7.244744
6
Step 1821
 C      6.413636      6.600182      5.764926
 H      6.816202      6.143742      4.824786
 H      6.281740      7.691469      5.571868
 C      6.166530      6.049472      6.972766
 H      5.828931      6.669538      7.821577
 H      6.349999      5.042577      7.231947
6
Step 1841
 C      6.404830      6.682521      5.810728
 H      6.716927      6.127097      4.911907
 H      6.162659      7.751641      5.756325
 C      6.204811      5.985789      6.932344
 H      5.760486      6.549444      7.769787
 H      6.272000      4.932061      7.006345
6
Step 1861
 C      6.389657      6.731284      5.843839
 H      6.724683      6.310323      4.901844
 H      6.201026      7.787641      5.897568
 C      6.197878      5.950573      6.900407
 H      5.855079      6.234121      7.909735
 H      6.381312      4.903084      6.781706
6
Step 1881
 C      6.368275      6.799367      5.882295
 H      6.712068      6.556648      4.906728
 H      6.266041      7.852780      5.977273
 C      6.196106      5.870719      6.867391
 H      5.962691      6.156482      7.909619
 H      6.483225      4.842589      6.689340
6
Step 1901
 C      6.354780      6.840403      5.944420
 H      6.625234      6.599347      4.963543
 H      6.138148      7.795050      6.309859
 C      6.240173      5.844417      6.793131
 H      5.910828      6.088298      7.820035
 H      6.370574      4.780033      6.586781
6
Step 1921
 C      6.345757      6.883343      5.973574
 H      6.554372      6.961950      4.950756
 H      6.124184      7.852137      6.333036
 C      6.255125      5.789585      6.786038
 H      5.916336      5.849792      7.834924
 H      6.365621      4.776833      6.346522
6
Step 1941
 C      6.315703      6.923539      6.048578
 H      6.583407      6.850684      5.026896
 H      6.176556      7.863624      6.533053
 C      6.251630      5.771101      6.706025
 H      6.073183      5.700888      7.786518
 H      6.516004      4.799953      6.224371
6
Step 1961
 C      6.299168      6.951251      6.108965
 H      6.547707      7.052712      5.053509
 H      6.149739      7.881273      6.650946
 C      6.270241      5.733016      6.657808
 H      6.102253      5.609362      7.727906
 H      6.515441      4.830021      6.039972
6
Step 1981
 C      6.298456      6.972483      6.142975
 H      6.431103      7.330669      5.107583
 H      6.048569      7.798966      6.848344
 C      6.302498      5.712431      6.622500
 H      6.045873      5.440012      7.639449
 H      6.402903      4.831031      5.937216
6
Step 2001
 C      6.274368      6.986375      6.229703
 H      6.431454      7.249862      5.154458
 H      6.072445      7.746233      7.032998
 C      6.309053      5.706713      6.535593
 H      6.129906      5.460308      7.566192
 H      6.491710      4.870906      5.822056
6
Step 2021
 C      6.253646      7.002676      6.276383
 H      6.430848      7.498452      5.266747
 H      6.120500      7.827794      7.048062
 C      6.305371      5.673139      6.502605
 H      6.265163      5.220265      7.475453
 H      6.587416      5.003876      5.663759
6
Step 2041
 C      6.247453      7.006659      6.328988
 H      6.357212      7.461014      5.291318
 H      6.028207      7.608767      7.263198
 C      6.336088      5.693997      6.454700
 H      6.226023      5.116895      7.341951
 H      6.488124      5.089384      5.544647
6
Step 2061
 C      6.232881      7.004902      6.403508
 H      6.263843      7.642550      5.456648
 H      6.001575      7.635180      7.311076
 C      6.364257      5.673926      6.375244
 H      6.192988      5.200231      7.311697
 H      6.468723      5.080392      5.460748
6
Step 2081
 C      6.212144      7.014257      6.433276
 H      6.291836      7.743540      5.582529
 H      6.078060      7.423196      7.464103
 C      6.352016      5.685942      6.341026
 H      6.352521      5.009830      7.173845
 H      6.587004      5.155221      5.411436
6
Step 2101
 C      6.202008      6.994129      6.500640
 H      6.270286      7.699776      5.652560
 H      6.053262      7.405995      7.503251
 C      6.362883      5.695118      6.285777
 H      6.391284      5.003803      7.112297
 H      6.574874      5.383928      5.264105
6
Step 2121
 C      6.195975      6.994867      6.569394
 H      6.157978      7.745492      5.783950
 H      5.985410      7.415618      7.535318