ITEM: TIMESTEP
49600
ITEM: NUMBER OF ATOMS
6
ITEM: BOX BOUNDS pp pp pp
0.0000000000000000e+00 1.0000000000000000e+01
0.0000000000000000e+00 1.0000000000000000e+01
0.0000000000000000e+00 1.0000000000000000e+01
ITEM: ATOMS id type x y z vx vy vz
2 1 4.9012 4.35149 4.8316 -6.31202 -1.52422 4.98702
3 2 5.1146 3.97629 3.81362 -23.2605 -19.7029 -12.3813
5 2 5.3535 6.37596 4.4295 -7.56677 1.47274 -12.433
4 2 4.62173 3.60061 5.5866 11.4109 11.5955 -12.2371
6 2 4.89002 6.03444 6.16164 21.2981 6.61364 27.7512
1 1 5.1007 5.64954 5.16928 6.15411 1.52599 -4.20654
ITEM: TIMESTEP
49700
ITEM: NUMBER OF ATOMS
6
ITEM: BOX BOUNDS pp pp pp
0.0000000000000000e+00 1.0000000000000000e+01
0.0000000000000000e+00 1.0000000000000000e+01
0.0000000000000000e+00 1.0000000000000000e+01
ITEM: ATOMS id type x y z vx vy vz
2 1 4.53045 4.58754 5.25504 -3.89695 4.78155 7.52869
3 2 3.5019 4.83016 5.35637 17.1222 10.7057 11.411
5 2 5.1962 6.4608 4.36611 7.98025 11.2047 5.07481
4 2 4.78764 3.56824 5.6201 -4.56723 -18.5318 -6.71596
6 2 6.53115 5.08851 4.67582 -7.60387 -6.05972 -18.7738
1 1 5.46834 5.41681 4.74357 2.81175 -4.55655 -6.77308
ITEM: TIMESTEP
49800
ITEM: NUMBER OF ATOMS
6
ITEM: BOX BOUNDS pp pp pp
0.0000000000000000e+00 1.0000000000000000e+01
0.0000000000000000e+00 1.0000000000000000e+01
0.0000000000000000e+00 1.0000000000000000e+01
ITEM: ATOMS id type x y z vx vy vz
2 1 4.6438 5.01957 5.57841 1.24827 4.56716 2.30507
3 2 5.15567 5.36656 6.53009 22.4356 -3.80907 7.30615
5 2 6.33117 5.37348 4.34243 -15.1178 -35.2841 -6.9359
4 2 3.66917 4.61648 5.66446 -7.30974 19.6065 5.2828
6 2 4.92746 4.65916 3.4629 -9.76831 11.2416 2.63621
1 1 5.34941 4.97908 4.42175 -0.429187 -3.87524 -3.0007
ITEM: TIMESTEP
49900
ITEM: NUMBER OF ATOMS
6
ITEM: BOX BOUNDS pp pp pp
0.0000000000000000e+00 1.0000000000000000e+01
0.0000000000000000e+00 1.0000000000000000e+01
0.0000000000000000e+00 1.0000000000000000e+01
ITEM: ATOMS id type x y z vx vy vz
2 1 5.13969 5.35774 5.5549 8.17982 1.93104 -2.7574
3 2 5.40316 4.91907 6.49738 -8.47845 6.74215 9.97448
5 2 4.85593 3.5286 4.44942 -18.0373 -22.4202 14.1795
4 2 5.12414 6.49662 5.53983 16.9823 -9.23583 -7.31444
6 2 4.61582 5.10128 3.52588 9.32084 13.1769 -12.1544
1 1 4.8606 4.6384 4.44421 -8.16198 -0.94607 2.36422
ITEM: TIMESTEP
50000
ITEM: NUMBER OF ATOMS
6
ITEM: BOX BOUNDS pp pp pp
0.0000000000000000e+00 1.0000000000000000e+01
0.0000000000000000e+00 1.0000000000000000e+01
0.0000000000000000e+00 1.0000000000000000e+01
ITEM: ATOMS id type x y z vx vy vz
2 1 5.58684 5.25333 5.21274 3.279 -0.443957 -2.52621
3 2 5.65946 5.95808 6.05004 -0.915717 0.418323 -28.3103
5 2 3.45146 5.11427 5.15627 1.52365 23.4819 -0.383003
4 2 6.5334 4.90064 4.87221 4.76107 -29.401 -2.95868
6 2 4.37956 3.97933 3.918 -11.4829 -5.91972 17.319
1 1 4.41136 4.75064 4.7877 -2.76592 1.40237 3.72904
ITEM: TIMESTEP
50100
ITEM: NUMBER OF ATOMS
6
ITEM: BOX BOUNDS pp pp pp
0.0000000000000000e+00 1.0000000000000000e+01
0.0000000000000000e+00 1.0000000000000000e+01
0.0000000000000000e+00 1.0000000000000000e+01
ITEM: ATOMS id type x y z vx vy vz
6 2 3.9248 4.78659 6.0784 14.7626 13.0182 9.3629
1 1 4.37431 5.14457 5.20142 1.18831 8.53344 3.09244
4 2 6.25883 4.16746 5.37391 -4.98421 7.51292 8.98185
5 2 3.72889 5.83587 4.61981 13.3623 -24.0018 5.80665
2 1 5.6297 4.84978 4.80281 -2.74111 -7.88354 -2.57427
3 2 6.04212 5.27697 3.87932 -4.63733 -4.27361 -30.3259
ITEM: TIMESTEP
50200
ITEM: NUMBER OF ATOMS
6
ITEM: BOX BOUNDS pp pp pp
0.0000000000000000e+00 1.0000000000000000e+01
0.0000000000000000e+00 1.0000000000000000e+01
0.0000000000000000e+00 1.0000000000000000e+01
ITEM: ATOMS id type x y z vx vy vz
6 2 5.45359 6.39733 5.48912 11.237 -6.86388 -27.996
1 1 4.77287 5.56895 5.28047 8.47879 3.02469 -0.244812
4 2 6.31833 4.25022 4.56672 -6.18834 1.49261 -16.3025
5 2 3.73392 5.75489 5.43967 -29.0452 -0.836971 12.6293
2 1 5.22064 4.43292 4.72132 -6.2853 -2.86981 0.829279
3 2 4.57393 3.57485 4.48502 -2.14123 4.36263 24.7046
ITEM: TIMESTEP
50300
ITEM: NUMBER OF ATOMS
6
ITEM: BOX BOUNDS pp pp pp
0.0000000000000000e+00 1.0000000000000000e+01
0.0000000000000000e+00 1.0000000000000000e+01
0.0000000000000000e+00 1.0000000000000000e+01
ITEM: ATOMS id type x y z vx vy vz
6 2 5.20381 6.33785 4.17418 -11.156 16.3304 -21.0743
1 1 5.27757 5.60715 5.04353 6.8514 -3.92775 -2.0257
4 2 4.17432 4.03861 4.11176 -14.4432 15.4771 12.2462
5 2 5.85003 5.93653 5.94192 5.8752 -13.7154 -20.2198
2 1 4.72035 4.39183 4.95524 -6.89067 1.63733 4.12973
3 2 4.79905 3.69877 5.7886 20.1918 9.2008 3.97609
ITEM: TIMESTEP
50400
ITEM: NUMBER OF ATOMS
6
ITEM: BOX BOUNDS pp pp pp
0.0000000000000000e+00 1.0000000000000000e+01
0.0000000000000000e+00 1.0000000000000000e+01
0.0000000000000000e+00 1.0000000000000000e+01
ITEM: ATOMS id type x y z vx vy vz
6 2 5.57245 6.31597 4.41907 -1.86122 -37.492 15.8479
1 1 5.46383 5.2589 4.60056 0.306215 -2.31534 -4.35355
4 2 3.91426 5.41277 6.01844 15.2673 21.9291 20.1377
5 2 6.11008 4.60858 3.94126 -17.9102 -13.8249 -16.6833
2 1 4.53398 4.74123 5.40721 0.693347 5.15812 3.17856
3 2 4.43181 3.66068 5.53055 -7.4068 -4.48707 -5.30103
ITEM: TIMESTEP
50500
ITEM: NUMBER OF ATOMS
6
ITEM: BOX BOUNDS pp pp pp
0.0000000000000000e+00 1.0000000000000000e+01
0.0000000000000000e+00 1.0000000000000000e+01
0.0000000000000000e+00 1.0000000000000000e+01
ITEM: ATOMS id type x y z vx vy vz
6 2 6.23165 4.45537 4.22437 3.06072 -19.5172 2.84953
1 1 5.20296 4.82605 4.38541 -4.8985 -6.39781 -1.23346
4 2 5.48824 5.11236 6.46151 -2.37119 -14.9051 -10.6401
5 2 4.55776 4.87432 3.58992 -11.6782 19.8174 16.5195
2 1 4.79236 5.1738 5.60618 4.81989 6.10193 0.567333
3 2 3.78059 5.5593 5.82618 11.9254 18.1306 -0.791333
ITEM: TIMESTEP
50600
ITEM: NUMBER OF ATOMS
6
ITEM: BOX BOUNDS pp pp pp
0.0000000000000000e+00 1.0000000000000000e+01
0.0000000000000000e+00 1.0000000000000000e+01
0.0000000000000000e+00 1.0000000000000000e+01
ITEM: ATOMS id type x y z vx vy vz
6 2 4.03929 3.82431 4.87808 -31.9693 0.418548 18.4584
1 1 4.66346 4.63057 4.56454 -3.96416 1.22413 3.93149
4 2 5.36686 5.12899 6.50144 -6.15318 -5.10875 3.43963
5 2 4.64041 4.93514 3.45608 2.21291 -4.26199 -9.7172
2 1 5.33669 5.36457 5.44089 5.70376 1.55602 -3.3708
3 2 5.95406 6.169 5.10155 15.1802 -24.1763 -18.8621
ITEM: TIMESTEP
50700
ITEM: NUMBER OF ATOMS
6
ITEM: BOX BOUNDS pp pp pp
0.0000000000000000e+00 1.0000000000000000e+01
0.0000000000000000e+00 1.0000000000000000e+01
0.0000000000000000e+00 1.0000000000000000e+01
ITEM: ATOMS id type x y z vx vy vz
6 2 3.57552 5.70187 5.05548 27.3289 2.50803 -15.6963
1 1 4.36064 4.8664 4.93308 -3.8831 3.80336 6.41418
4 2 5.96781 6.14293 5.23875 5.04523 -0.114408 -17.3334
5 2 3.96634 3.87972 4.74208 -5.42931 0.47662 18.1059
2 1 5.64745 5.13134 5.06785 1.68625 -2.43524 -5.93003
3 2 6.39635 4.30208 4.95439 -0.767002 -19.1729 9.15467
ITEM: TIMESTEP
50800
ITEM: NUMBER OF ATOMS
6
ITEM: BOX BOUNDS pp pp pp
0.0000000000000000e+00 1.0000000000000000e+01
0.0000000000000000e+00 1.0000000000000000e+01
0.0000000000000000e+00 1.0000000000000000e+01
ITEM: ATOMS id type x y z vx vy vz
6 2 3.74413 5.74849 4.67971 -9.03693 3.15664 -6.22271
1 1 4.49558 5.33154 5.27791 2.65107 5.04257 4.34848
4 2 5.53816 4.44874 3.6268 -16.7759 -21.6976 12.0851
5 2 4.49562 5.50694 6.33982 28.7229 14.3723 -21.2871
2 1 5.50115 4.67497 4.72594 -2.88295 -4.7943 -2.86691
3 2 6.26349 4.21778 5.30968 -0.146943 1.21029 -2.22973
ITEM: TIMESTEP
50900
ITEM: NUMBER OF ATOMS
6
ITEM: BOX BOUNDS pp pp pp
0.0000000000000000e+00 1.0000000000000000e+01
0.0000000000000000e+00 1.0000000000000000e+01
0.0000000000000000e+00 1.0000000000000000e+01
ITEM: ATOMS id type x y z vx vy vz
6 2 4.24571 5.92339 5.98764 17.4396 6.72507 7.72487
1 1 4.95584 5.62273 5.20594 5.1276 -0.429735 0.314117
4 2 4.39424 3.61489 5.17702 -11.0746 -6.68907 35.8207
5 2 5.63695 6.40053 4.79605 9.34988 27.233 -29.7205
2 1 5.04199 4.37467 4.79732 -4.7514 -2.04972 -1.63325
3 2 5.75143 4.09179 4.00223 -20.1977 2.27635 1.89381
ITEM: TIMESTEP
51000
ITEM: NUMBER OF ATOMS
6
ITEM: BOX BOUNDS pp pp pp
0.0000000000000000e+00 1.0000000000000000e+01
0.0000000000000000e+00 1.0000000000000000e+01
0.0000000000000000e+00 1.0000000000000000e+01
ITEM: ATOMS id type x y z vx vy vz
6 2 6.45956 5.5252 5.26618 8.35196 -17.4268 -25.2978
1 1 5.40436 5.49905 4.87931 3.44002 0.158287 -5.40439
4 2 4.91541 3.71236 5.81659 -10.6387 9.6343 -11.0001
5 2 5.1506 6.33089 4.19833 4.37685 -19.8935 14.3607
2 1 4.58944 4.49648 5.11921 -1.18831 1.06526 5.84718
3 2 3.55076 4.48436 4.7383 -28.9217 13.1061 16.6608
ITEM: TIMESTEP
51100
ITEM: NUMBER OF ATOMS
6
ITEM: BOX BOUNDS pp pp pp
0.0000000000000000e+00 1.0000000000000000e+01
0.0000000000000000e+00 1.0000000000000000e+01
0.0000000000000000e+00 1.0000000000000000e+01
ITEM: ATOMS id type x y z vx vy vz
3 2 4.59936 5.58571 6.34497 22.5785 -20.3126 -1.88172
1 1 5.38947 5.09706 4.47083 -0.625043 -6.4377 -3.61194
5 2 6.08471 5.91613 4.47267 15.2224 -6.05122 -3.26161
4 2 3.87832 4.06678 5.60124 -15.6809 7.5175 12.3456
2 1 4.61457 4.90276 5.52205 0.687981 7.18626 3.52307
6 2 5.39187 4.43311 3.66782 -22.8699 9.92648 -6.14323
ITEM: TIMESTEP
51200
ITEM: NUMBER OF ATOMS
6
ITEM: BOX BOUNDS pp pp pp
0.0000000000000000e+00 1.0000000000000000e+01
0.0000000000000000e+00 1.0000000000000000e+01
0.0000000000000000e+00 1.0000000000000000e+01
ITEM: ATOMS id type x y z vx vy vz
3 2 5.56386 4.91821 6.4664 4.85211 -2.02433 5.28191
1 1 5.02154 4.69637 4.41567 -3.83652 -2.75258 2.3236
5 2 5.52498 3.739 4.24881 -26.4072 -23.7346 -7.85696
4 2 4.47531 6.21833 5.72711 26.4439 15.0377 -8.58878
2 1 4.98113 5.30656 5.58597 4.31942 3.32397 0.181764
6 2 4.40645 5.08909 3.53999 -10.6431 3.91245 -18.6902
ITEM: TIMESTEP
51300
ITEM: NUMBER OF ATOMS
6
ITEM: BOX BOUNDS pp pp pp
0.0000000000000000e+00 1.0000000000000000e+01
0.0000000000000000e+00 1.0000000000000000e+01
0.0000000000000000e+00 1.0000000000000000e+01
ITEM: ATOMS id type x y z vx vy vz
3 2 5.44579 5.58776 6.33853 13.6053 15.6475 3.46018
1 1 4.49613 4.7107 4.68666 -4.76893 -0.780545 1.86259
5 2 3.52941 4.43493 5.21708 2.19816 29.9019 -4.32542
4 2 6.44758 5.54708 4.75048 8.86376 -23.1934 8.86438
2 1 5.50653 5.29328 5.31672 4.0207 -0.638417 -4.91583
6 2 4.54798 4.38242 3.65554 -15.7512 -5.44761 28.3835
ITEM: TIMESTEP
51400
ITEM: NUMBER OF ATOMS
6
ITEM: BOX BOUNDS pp pp pp
0.0000000000000000e+00 1.0000000000000000e+01
0.0000000000000000e+00 1.0000000000000000e+01
0.0000000000000000e+00 1.0000000000000000e+01
ITEM: ATOMS id type x y z vx vy vz
3 2 6.20152 5.78064 4.37942 2.55035 -33.216 -18.7705
1 1 4.33554 5.02641 5.09163 -0.21417 3.31813 3.88535
5 2 3.79883 5.85219 4.81371 -4.07073 6.24071 -4.37362
4 2 6.27687 4.12317 5.16938 10.0544 -13.5267 4.69467
2 1 5.65788 4.97392 4.90981 -0.262097 -1.58868 -4.33042
6 2 3.80356 4.23974 5.6222 -2.85881 19.8937 23.7529
ITEM: TIMESTEP
51500
ITEM: NUMBER OF ATOMS
6
ITEM: BOX BOUNDS pp pp pp
0.0000000000000000e+00 1.0000000000000000e+01
0.0000000000000000e+00 1.0000000000000000e+01
0.0000000000000000e+00 1.0000000000000000e+01
ITEM: ATOMS id type x y z vx vy vz
3 2 4.90575 3.87369 3.90653 -21.5024 -21.0462 12.3103
1 1 4.6665 5.50042 5.28533 2.77584 0.710718 -1.39335
5 2 3.57686 5.76281 5.0445 -4.67433 15.2897 13.9626
4 2 6.37347 4.28513 4.97022 -13.1907 -2.75195 -16.9154
2 1 5.33576 4.49747 4.71488 -1.63822 -3.02884 0.312621
6 2 5.11943 6.10306 6.07808 25.8114 36.1313 3.52068
ITEM: TIMESTEP
51600
ITEM: NUMBER OF ATOMS
6
ITEM: BOX BOUNDS pp pp pp
0.0000000000000000e+00 1.0000000000000000e+01
0.0000000000000000e+00 1.0000000000000000e+01
0.0000000000000000e+00 1.0000000000000000e+01
ITEM: ATOMS id type x y z vx vy vz
3 2 4.53111 3.69794 5.66248 5.8935 3.40794 4.58527
1 1 5.14524 5.63911 5.11751 4.80304 2.2067 -4.45397
5 2 5.16229 6.05516 6.13397 30.6962 2.2419 0.667215
4 2 4.83085 3.94804 3.86545 -33.0139 -7.3845 4.95678
2 1 4.85467 4.35267 4.8843 -4.20954 -0.331187 2.36255
6 2 5.47933 6.39641 4.31846 -10.648 -20.6141 14.7123
ITEM: TIMESTEP
51700
ITEM: NUMBER OF ATOMS
6
ITEM: BOX BOUNDS pp pp pp
0.0000000000000000e+00 1.0000000000000000e+01
0.0000000000000000e+00 1.0000000000000000e+01
0.0000000000000000e+00 1.0000000000000000e+01
ITEM: ATOMS id type x y z vx vy vz
3 2 4.67777 3.6064 5.65607 -15.9274 -4.22435 5.27298
1 1 5.47498 5.35976 4.67958 3.38079 -4.42942 -3.55446
5 2 6.46201 4.98922 4.53608 -36.3441 -7.2598 -20.5469
4 2 3.50802 5.00862 5.48644 -1.5554 23.2894 27.0453
2 1 4.52931 4.64394 5.31801 0.729024 2.37749 3.06698
6 2 5.30357 6.35119 4.35204 4.85394 12.6457 -5.9626
ITEM: TIMESTEP
51800
ITEM: NUMBER OF ATOMS
6
ITEM: BOX BOUNDS pp pp pp
0.0000000000000000e+00 1.0000000000000000e+01
0.0000000000000000e+00 1.0000000000000000e+01
0.0000000000000000e+00 1.0000000000000000e+01
ITEM: ATOMS id type x y z vx vy vz
3 2 3.61822 4.87914 5.76609 4.82771 27.9261 -3.03809
1 1 5.29414 4.94084 4.39866 -1.81959 -1.56888 1.31257
5 2 4.7775 4.55464 3.49085 -27.6247 -10.3532 -30.0538
4 2 5.23679 5.42312 6.49153 11.7716 -9.20775 -7.13179
2 1 4.70856 5.06074 5.60064 2.72232 3.55252 2.83279
6 2 6.33777 5.12378 4.26177 0.26828 -32.0024 -9.17288
ITEM: TIMESTEP
51900
ITEM: NUMBER OF ATOMS
6
ITEM: BOX BOUNDS pp pp pp
0.0000000000000000e+00 1.0000000000000000e+01
0.0000000000000000e+00 1.0000000000000000e+01
0.0000000000000000e+00 1.0000000000000000e+01
ITEM: ATOMS id type x y z vx vy vz
3 2 5.31123 6.43084 5.43329 29.9689 1.97791 -14.2544
1 1 4.78122 4.63355 4.49096 -5.02474 0.202757 0.57526
5 2 4.56501 5.04917 3.50247 3.76607 -5.8089 12.5328
4 2 5.4372 4.96023 6.49271 0.890667 7.65683 -9.26162
2 1 5.22004 5.37387 5.51601 4.40611 -0.126041 -1.02407
6 2 4.67404 3.4709 4.49029 -27.254 -4.73999 16.3313
ITEM: TIMESTEP
52000
ITEM: NUMBER OF ATOMS
6
ITEM: BOX BOUNDS pp pp pp
0.0000000000000000e+00 1.0000000000000000e+01
0.0000000000000000e+00 1.0000000000000000e+01
0.0000000000000000e+00 1.0000000000000000e+01
ITEM: ATOMS id type x y z vx vy vz
3 2 6.54106 4.78016 4.77541 -4.51686 -15.1294 1.46495
1 1 4.38305 4.80388 4.82558 -4.10727 2.89422 2.22824
5 2 4.19154 3.94552 4.14255 -2.27075 0.372578 30.8998
4 2 5.80579 6.04482 5.8545 12.9491 28.6093 -9.93866
2 1 5.61147 5.19645 5.17146 1.61597 -5.35065 -3.88573
6 2 3.52927 5.22515 5.26468 23.5251 15.4185 -2.67531
ITEM: TIMESTEP
52100
ITEM: NUMBER OF ATOMS
6
ITEM: BOX BOUNDS pp pp pp
0.0000000000000000e+00 1.0000000000000000e+01
0.0000000000000000e+00 1.0000000000000000e+01
0.0000000000000000e+00 1.0000000000000000e+01
ITEM: ATOMS id type x y z vx vy vz
1 1 4.4178 5.22042 5.2354 4.30587 3.74199 -0.0291049
5 2 4.02015 4.92059 6.17079 6.86014 20.6088 35.7849
3 2 6.28474 4.13242 5.37113 -7.70071 -2.65854 12.9964
6 2 3.73387 5.85392 4.65241 -3.89488 3.48368 1.80062
4 2 5.9956 5.07683 3.80387 -25.6832 -24.3543 0.510196
2 1 5.57952 4.78091 4.7649 -1.75313 -3.49692 -4.25855
ITEM: TIMESTEP
52200
ITEM: NUMBER OF ATOMS
6
ITEM: BOX BOUNDS pp pp pp
0.0000000000000000e+00 1.0000000000000000e+01
0.0000000000000000e+00 1.0000000000000000e+01
0.0000000000000000e+00 1.0000000000000000e+01
ITEM: ATOMS id type x y z vx vy vz
1 1 4.84023 5.58827 5.23899 5.35224 2.19934 -3.30839
5 2 5.58698 6.4239 5.3987 7.23799 -9.09 -23.2974
3 2 6.1284 4.19129 4.41762 -19.1716 -5.25011 -20.7428
6 2 3.83421 5.88293 5.61493 1.4119 -5.10206 22.2337
4 2 4.39541 3.60776 4.61736 -9.01864 6.41827 16.3803
2 1 5.16459 4.40281 4.75708 -3.71242 -1.10638 3.76376
ITEM: TIMESTEP
52300
ITEM: NUMBER OF ATOMS
6
ITEM: BOX BOUNDS pp pp pp
0.0000000000000000e+00 1.0000000000000000e+01
0.0000000000000000e+00 1.0000000000000000e+01
0.0000000000000000e+00 1.0000000000000000e+01
ITEM: ATOMS id type x y z vx vy vz
1 1 5.33351 5.57279 4.9762 3.19169 -2.72944 -2.46258
5 2 5.19677 6.28889 4.18595 -7.46486 -10.2665 -5.09424
3 2 3.98497 4.05173 4.21889 -18.2655 13.9863 20.3764
6 2 5.98047 5.84778 5.78781 13.4523 -22.6347 -27.3416
4 2 4.79536 3.70123 5.78628 5.6106 -12.8182 15.9069
2 1 4.67026 4.43644 5.02573 -2.63216 5.39249 2.13971
ITEM: TIMESTEP
52400
ITEM: NUMBER OF ATOMS
6
ITEM: BOX BOUNDS pp pp pp
0.0000000000000000e+00 1.0000000000000000e+01
0.0000000000000000e+00 1.0000000000000000e+01
0.0000000000000000e+00 1.0000000000000000e+01
ITEM: ATOMS id type x y z vx vy vz
1 1 5.43286 5.19226 4.54539 -6.54237 -4.73796 -0.612714
5 2 5.71073 6.24672 4.42794 25.0297 -2.27925 0.504872
3 2 4.04451 5.53232 6.08619 14.0663 30.5808 10.7114
6 2 5.96915 4.49897 3.88109 -8.35882 -14.4993 -21.0829
4 2 4.2581 3.74186 5.57843 -3.26604 29.504 -13.598
2 1 4.56881 4.80604 5.45697 4.23699 1.10369 2.58187
ITEM: TIMESTEP
52500
ITEM: NUMBER OF ATOMS
6
ITEM: BOX BOUNDS pp pp pp
0.0000000000000000e+00 1.0000000000000000e+01
0.0000000000000000e+00 1.0000000000000000e+01
0.0000000000000000e+00 1.0000000000000000e+01
ITEM: ATOMS id type x y z vx vy vz
1 1 5.13376 4.7722 4.40175 -5.49641 -2.18155 1.42422
5 2 6.0809 4.26437 4.14429 -23.5384 -20.3128 9.45588
3 2 5.52991 5.05524 6.41949 -11.7914 5.14367 -14.3998
6 2 4.47226 4.93083 3.52409 1.0755 9.136 19.2635
4 2 3.89912 5.71258 5.81145 0.804491 33.4572 0.733519
2 1 4.86794 5.23087 5.60686 8.30351 -0.119879 -2.68748
ITEM: TIMESTEP
52600
ITEM: NUMBER OF ATOMS
6
ITEM: BOX BOUNDS pp pp pp
0.0000000000000000e+00 1.0000000000000000e+01
0.0000000000000000e+00 1.0000000000000000e+01
0.0000000000000000e+00 1.0000000000000000e+01
ITEM: ATOMS id type x y z vx vy vz
1 1 4.58417 4.65462 4.60853 -4.1244 4.14225 5.9104
5 2 3.91616 3.94036 5.018 -5.46444 19.6276 14.3746
3 2 5.40173 5.22774 6.51721 -4.41657 12.5902 9.80671
6 2 4.65731 4.78701 3.55944 3.31738 -14.8667 -7.30372
4 2 6.08174 6.08191 5.01741 12.8693 -15.4814 -7.4463
2 1 5.41126 5.34224 5.38222 3.59523 -4.29915 -6.70188
ITEM: TIMESTEP
52700
ITEM: NUMBER OF ATOMS
6
ITEM: BOX BOUNDS pp pp pp
0.0000000000000000e+00 1.0000000000000000e+01
0.0000000000000000e+00 1.0000000000000000e+01
0.0000000000000000e+00 1.0000000000000000e+01
ITEM: ATOMS id type x y z vx vy vz
1 1 4.34396 4.92017 5.00293 3.9375 4.21391 3.54907
5 2 3.66788 5.82134 4.96509 -15.9817 18.8821 -6.02598
3 2 6.08258 6.05747 5.06664 -2.2832 -8.51595 -30.8743
6 2 3.87327 3.92659 4.9289 -8.1911 5.89522 26.6587
4 2 6.35377 4.18182 5.01019 -16.4132 1.74575 2.37001
2 1 5.65814 5.08087 4.99967 -0.3399 -5.72507 -2.88849
ITEM: TIMESTEP
52800
ITEM: NUMBER OF ATOMS
6
ITEM: BOX BOUNDS pp pp pp
0.0000000000000000e+00 1.0000000000000000e+01
0.0000000000000000e+00 1.0000000000000000e+01
0.0000000000000000e+00 1.0000000000000000e+01
ITEM: ATOMS id type x y z vx vy vz
1 1 4.56037 5.40191 5.28917 4.51885 6.10919 -0.420227
5 2 3.68964 5.75756 4.75457 15.485 -13.987 19.3141
3 2 5.35829 4.33051 3.65934 -11.8998 -15.6222 16.7968
6 2 4.65092 5.68585 6.37832 13.7954 10.0934 -11.2711
4 2 6.26041 4.27227 5.28063 17.5147 1.69297 -4.64123
2 1 5.44326 4.59418 4.70486 -7.44727 -4.6135 -1.27485
ITEM: TIMESTEP
52900
ITEM: NUMBER OF ATOMS
6
ITEM: BOX BOUNDS pp pp pp
0.0000000000000000e+00 1.0000000000000000e+01
0.0000000000000000e+00 1.0000000000000000e+01
0.0000000000000000e+00 1.0000000000000000e+01
ITEM: ATOMS id type x y z vx vy vz
1 1 5.03869 5.6434 5.18612 4.5406 0.81292 -3.55452
5 2 4.427 5.98904 6.0319 24.3925 -1.04798 8.83932
3 2 4.37061 3.63666 5.40993 -8.39772 -18.1044 25.4323
6 2 5.57387 6.31435 4.61487 1.1887 1.55838 -10.9205
4 2 5.55774 3.97396 3.96122 -26.6052 -7.50633 -11.2361
2 1 4.96746 4.36378 4.81253 -3.74993 1.2935 2.53782
ITEM: TIMESTEP
53000
ITEM: NUMBER OF ATOMS
6
ITEM: BOX BOUNDS pp pp pp
0.0000000000000000e+00 1.0000000000000000e+01
0.0000000000000000e+00 1.0000000000000000e+01
0.0000000000000000e+00 1.0000000000000000e+01
ITEM: ATOMS id type x y z vx vy vz
1 1 5.45177 5.45069 4.80465 0.760226 -4.23619 -6.94931
5 2 6.48844 5.37112 5.10068 33.1675 -5.31925 -12.4599
3 2 4.87985 3.66533 5.7713 -8.7751 11.0106 -19.9523
6 2 5.10622 6.33951 4.19918 5.22109 3.42013 6.59013
4 2 3.47541 4.62966 4.90383 4.29867 14.8692 18.9479
2 1 4.55264 4.5488 5.1976 -3.60614 2.22373 7.52619
ITEM: TIMESTEP
53100
ITEM: NUMBER OF ATOMS
6
ITEM: BOX BOUNDS pp pp pp
0.0000000000000000e+00 1.0000000000000000e+01
0.0000000000000000e+00 1.0000000000000000e+01
0.0000000000000000e+00 1.0000000000000000e+01
ITEM: ATOMS id type x y z vx vy vz
1 1 5.36855 5.02943 4.44911 -3.27647 -5.37389 -6.1986
5 2 5.15919 4.39832 3.54924 -10.2648 14.2862 16.402
6 2 6.16995 5.78374 4.33779 25.5595 -11.7372 -7.84992
3 2 3.85872 4.2382 5.64117 -16.3902 18.3216 4.37275
4 2 4.88547 5.57675 6.37614 15.2352 -5.23529 7.22334
2 1 4.6255 4.97079 5.55907 2.08987 4.06178 4.50776
ITEM: TIMESTEP
53200
ITEM: NUMBER OF ATOMS
6
ITEM: BOX BOUNDS pp pp pp
0.0000000000000000e+00 1.0000000000000000e+01
0.0000000000000000e+00 1.0000000000000000e+01
0.0000000000000000e+00 1.0000000000000000e+01
ITEM: ATOMS id type x y z vx vy vz
1 1 4.9302 4.6531 4.43147 -7.01848 -6.79 -0.635372
5 2 4.44141 5.13902 3.57012 0.674492 11.803 -14.2986
6 2 5.33541 3.68214 4.31146 -25.5626 11.1889 12.2481
3 2 4.66448 6.37139 5.67132 15.8905 20.7607 2.99082
4 2 5.55432 4.90899 6.47319 -1.56383 -1.97715 21.1566
2 1 5.07037 5.33835 5.56649 7.9048 3.2842 -1.219
ITEM: TIMESTEP
53300
ITEM: NUMBER OF ATOMS
6
ITEM: BOX BOUNDS pp pp pp
0.0000000000000000e+00 1.0000000000000000e+01
0.0000000000000000e+00 1.0000000000000000e+01
0.0000000000000000e+00 1.0000000000000000e+01
ITEM: ATOMS id type x y z vx vy vz
1 1 4.44978 4.72183 4.74178 -4.85229 2.03199 1.84649
5 2 4.43538 4.35206 3.75725 -17.979 -20.7617 8.0071
6 2 3.48 4.7318 5.31904 -17.2005 17.7076 4.67541
3 2 6.53015 5.26814 4.75668 -4.16661 -21.4137 -3.33217
4 2 5.56431 5.67367 6.27832 0.106261 8.88164 -27.9889
2 1 5.5496 5.27598 5.24903 8.1453 -0.723999 -0.282334
ITEM: TIMESTEP
53400
ITEM: NUMBER OF ATOMS
6
ITEM: BOX BOUNDS pp pp pp
0.0000000000000000e+00 1.0000000000000000e+01
0.0000000000000000e+00 1.0000000000000000e+01
0.0000000000000000e+00 1.0000000000000000e+01
ITEM: ATOMS id type x y z vx vy vz
1 1 4.36529 5.09569 5.15049 -1.547 6.66519 6.47901
5 2 3.75783 4.39961 5.80458 9.60931 18.5437 11.5089
6 2 3.75759 5.88461 4.77213 -12.9013 -0.883486 -12.7638
3 2 6.17679 4.09034 5.26024 1.80849 2.72825 9.26054
4 2 6.17002 5.59672 4.20422 8.70216 -3.59452 -23.3715
2 1 5.64648 4.90668 4.84621 0.941203 -8.07454 -5.18951
ITEM: TIMESTEP
53500
ITEM: NUMBER OF ATOMS
6
ITEM: BOX BOUNDS pp pp pp
0.0000000000000000e+00 1.0000000000000000e+01
0.0000000000000000e+00 1.0000000000000000e+01
0.0000000000000000e+00 1.0000000000000000e+01
ITEM: ATOMS id type x y z vx vy vz
1 1 4.73028 5.53477 5.29264 1.60967 6.56416 -0.14954
5 2 5.31356 6.24277 5.85788 26.9602 19.0789 -9.46867
6 2 3.68001 5.80479 5.12408 13.3581 -11.523 13.117
3 2 6.35701 4.1615 4.86802 3.43356 -10.4046 -20.7749
4 2 4.73067 3.72166 4.12587 -7.71251 -10.255 14.7177
2 1 5.26311 4.47101 4.70954 -4.6341 -5.4645 0.351693
ITEM: TIMESTEP
53600
ITEM: NUMBER OF ATOMS
6
ITEM: BOX BOUNDS pp pp pp
0.0000000000000000e+00 1.0000000000000000e+01
0.0000000000000000e+00 1.0000000000000000e+01
0.0000000000000000e+00 1.0000000000000000e+01
ITEM: ATOMS id type x y z vx vy vz
1 1 5.2197 5.62255 5.07549 7.08586 -0.896639 -5.32226
5 2 5.39942 6.29447 4.23864 -11.7663 3.84897 7.51723
6 2 5.42036 6.07095 6.07821 25.5988 11.3967 0.413201
3 2 4.59032 3.90406 4.00181 -14.6827 10.6492 7.56769
4 2 4.61743 3.68904 5.77692 17.7512 11.091 -4.55077
2 1 4.7782 4.38089 4.91664 -8.50418 -2.20722 4.40356
ITEM: TIMESTEP
53700
ITEM: NUMBER OF ATOMS
6
ITEM: BOX BOUNDS pp pp pp
0.0000000000000000e+00 1.0000000000000000e+01
0.0000000000000000e+00 1.0000000000000000e+01
0.0000000000000000e+00 1.0000000000000000e+01
ITEM: ATOMS id type x y z vx vy vz
1 1 5.47391 5.29511 4.64627 0.722281 -4.61646 -5.87517
5 2 5.40841 6.34022 4.2784 9.79242 -4.09297 11.2139
6 2 6.3567 4.83388 4.24404 -16.3314 -9.62542 -17.1311
3 2 3.64087 5.24232 5.7169 11.6512 9.80377 15.5953
4 2 4.61644 3.69156 5.70809 -8.73344 -30.4941 8.29562
2 1 4.52441 4.69579 5.3583 -0.418387 7.50405 4.36681
ITEM: TIMESTEP
53800
ITEM: NUMBER OF ATOMS
6
ITEM: BOX BOUNDS pp pp pp
0.0000000000000000e+00 1.0000000000000000e+01
0.0000000000000000e+00 1.0000000000000000e+01
0.0000000000000000e+00 1.0000000000000000e+01
ITEM: ATOMS id type x y z vx vy vz
1 1 5.25118 4.87366 4.39216 -4.0689 -6.36691 -0.251348
5 2 6.30398 4.87312 4.16241 5.68652 -18.5588 -5.84583
6 2 4.59187 4.67547 3.55007 -14.9984 17.7568 5.34407
3 2 5.39337 5.34342 6.51518 15.1049 -11.3596 20.2858
4 2 3.65879 5.10093 5.87099 23.5195 20.2381 3.49156
2 1 4.75339 5.12689 5.59971 1.60899 5.68913 -1.70195
ITEM: TIMESTEP
53900
ITEM: NUMBER OF ATOMS
6
ITEM: BOX BOUNDS pp pp pp
0.0000000000000000e+00 1.0000000000000000e+01
0.0000000000000000e+00 1.0000000000000000e+01
0.0000000000000000e+00 1.0000000000000000e+01
ITEM: ATOMS id type x y z vx vy vz
1 1 4.72506 4.62279 4.52148 -5.47806 0.876358 5.03772
5 2 4.35928 3.61117 4.70559 -21.707 6.2961 8.04415
6 2 4.49309 5.01617 3.50285 1.39492 -9.07269 -5.88329
3 2 5.52478 5.01833 6.46014 -19.518 9.48614 -35.1802
4 2 5.63137 6.40614 5.30163 20.1492 -7.34412 -14.1086
2 1 5.27443 5.37283 5.48117 7.12968 -0.823105 -1.08274
ITEM: TIMESTEP
54000
ITEM: NUMBER OF ATOMS
6
ITEM: BOX BOUNDS pp pp pp
0.0000000000000000e+00 1.0000000000000000e+01
0.0000000000000000e+00 1.0000000000000000e+01
0.0000000000000000e+00 1.0000000000000000e+01
ITEM: ATOMS id type x y z vx vy vz
1 1 4.3636 4.83266 4.88854 -0.733012 2.58322 6.47583
5 2 3.52188 5.48032 5.2136 17.479 14.5142 -15.3741
6 2 4.03064 3.95752 4.35015 -8.13162 -2.16343 13.0839
3 2 5.91584 6.06857 5.66392 15.5141 18.4214 -7.36094
4 2 6.42165 4.56279 4.79113 -6.09339 -27.4743 8.10632
2 1 5.64583 5.1615 5.11004 -0.842008 -2.85998 -6.34618
ITEM: TIMESTEP
54100
ITEM: NUMBER OF ATOMS
6
ITEM: BOX BOUNDS pp pp pp
0.0000000000000000e+00 1.0000000000000000e+01
0.0000000000000000e+00 1.0000000000000000e+01
0.0000000000000000e+00 1.0000000000000000e+01
ITEM: ATOMS id type x y z vx vy vz
1 1 4.44386 5.27417 5.25947 5.34273 4.09762 3.65384
6 2 4.23325 5.19253 6.31936 23.8523 14.8787 -8.80804
4 2 6.25522 4.04588 5.36148 8.53064 0.662794 7.55039
5 2 3.77421 5.91258 4.68339 -4.74951 4.1297 -13.268
3 2 5.81093 4.78579 3.67556 -13.927 -20.1605 -17.4738
2 1 5.55017 4.7311 4.73734 -6.49298 -4.05656 -0.968452
ITEM: TIMESTEP
54200
ITEM: NUMBER OF ATOMS
6
ITEM: BOX BOUNDS pp pp pp
0.0000000000000000e+00 1.0000000000000000e+01
0.0000000000000000e+00 1.0000000000000000e+01
0.0000000000000000e+00 1.0000000000000000e+01
ITEM: ATOMS id type x y z vx vy vz
1 1 4.90635 5.62191 5.23438 4.5734 -1.37033 -0.282637
6 2 5.6892 6.41374 5.11511 10.4036 8.86231 -26.9742
4 2 5.99937 4.0601 4.27946 -23.4795 5.60488 -1.28126
5 2 3.98986 5.90916 5.69165 16.976 0.997221 4.36391
3 2 4.29894 3.58537 4.8739 12.914 24.368 31.0779
2 1 5.09576 4.38071 4.76912 -5.98445 -1.97242 -0.320436
ITEM: TIMESTEP
54300
ITEM: NUMBER OF ATOMS
6
ITEM: BOX BOUNDS pp pp pp
0.0000000000000000e+00 1.0000000000000000e+01
0.0000000000000000e+00 1.0000000000000000e+01
0.0000000000000000e+00 1.0000000000000000e+01
ITEM: ATOMS id type x y z vx vy vz
1 1 5.37031 5.54991 4.92993 3.53417 -4.35072 -4.26045
6 2 5.23152 6.23048 4.12407 -13.2965 -1.65159 -4.14214
4 2 3.77028 4.27628 4.44576 -13.0297 22.6562 14.2375
5 2 6.2767 5.76691 5.58545 12.8574 -14.7802 -13.5016
3 2 4.80296 3.79134 5.86043 11.8792 -7.53557 12.3143
2 1 4.62306 4.4446 5.06891 -3.40076 4.46076 3.51289
ITEM: TIMESTEP
54400
ITEM: NUMBER OF ATOMS
6
ITEM: BOX BOUNDS pp pp pp
0.0000000000000000e+00 1.0000000000000000e+01
0.0000000000000000e+00 1.0000000000000000e+01
0.0000000000000000e+00 1.0000000000000000e+01
ITEM: ATOMS id type x y z vx vy vz
1 1 5.42103 5.1346 4.50053 0.108149 -3.09112 -2.01913
6 2 5.8402 6.1717 4.37366 -3.81554 -23.3001 7.82978
4 2 4.28986 5.64934 6.23606 22.3843 15.0569 27.6765
5 2 5.71171 4.38618 3.79542 -30.6589 -17.4894 -12.6086
3 2 4.13796 3.83097 5.65192 -5.82435 2.43343 0.318149
2 1 4.58088 4.86216 5.49483 1.39524 5.0464 0.0708431
ITEM: TIMESTEP
54500
ITEM: NUMBER OF ATOMS
6
ITEM: BOX BOUNDS pp pp pp
0.0000000000000000e+00 1.0000000000000000e+01
0.0000000000000000e+00 1.0000000000000000e+01
0.0000000000000000e+00 1.0000000000000000e+01
ITEM: ATOMS id type x y z vx vy vz
1 1 5.08426 4.73492 4.39322 -7.20482 -2.24956 0.12774
6 2 5.85519 4.02014 4.17665 -3.38794 -33.2782 0.225201
4 2 5.63458 5.06773 6.42455 -9.16139 -9.0536 -27.19
5 2 4.34428 4.95933 3.63365 10.499 6.4597 16.6859
3 2 4.15069 6.0009 5.81449 23.7505 10.0013 -13.7242
2 1 4.91723 5.26101 5.6028 5.38374 4.42064 1.8866
ITEM: TIMESTEP
54600
ITEM: NUMBER OF ATOMS
6
ITEM: BOX BOUNDS pp pp pp
0.0000000000000000e+00 1.0000000000000000e+01
0.0000000000000000e+00 1.0000000000000000e+01
0.0000000000000000e+00 1.0000000000000000e+01
ITEM: ATOMS id type x y z vx vy vz
1 1 4.5396 4.68013 4.65762 -4.12598 -0.436921 5.97792
6 2 3.75633 4.1215 5.15686 -10.4799 32.0299 9.24087
4 2 5.43781 5.30438 6.40761 -2.39355 -0.42298 17.8173
5 2 4.50526 4.64505 3.53583 -2.40926 -6.07473 -18.6686
3 2 6.24608 5.84938 4.83635 15.2384 -26.8349 -11.9342
2 1 5.46519 5.32652 5.34785 4.1297 0.546241 -5.68046
ITEM: TIMESTEP
54700
ITEM: NUMBER OF ATOMS
6
ITEM: BOX BOUNDS pp pp pp
0.0000000000000000e+00 1.0000000000000000e+01
0.0000000000000000e+00 1.0000000000000000e+01
0.0000000000000000e+00 1.0000000000000000e+01
ITEM: ATOMS id type x y z vx vy vz
1 1 4.34261 4.97139 5.03845 -3.00472 2.6639 4.46348
6 2 3.73936 5.92894 4.98594 12.1422 8.64578 -8.12152
4 2 6.20747 5.97003 4.74015 5.2516 -19.1859 -19.6173
5 2 3.83152 4.05137 5.24766 12.4735 18.8363 24.2702
3 2 6.26808 4.07625 4.99421 3.33031 -21.8504 9.36953
2 1 5.6537 5.02634 4.9644 0.218771 -1.52643 -4.95868
ITEM: TIMESTEP
54800
ITEM: NUMBER OF ATOMS
6
ITEM: BOX BOUNDS pp pp pp
0.0000000000000000e+00 1.0000000000000000e+01
0.0000000000000000e+00 1.0000000000000000e+01
0.0000000000000000e+00 1.0000000000000000e+01
ITEM: ATOMS id type x y z vx vy vz
1 1 4.61336 5.44952 5.29085 3.87487 2.77278 1.85385
6 2 3.73421 5.79562 4.83967 -3.10998 7.63128 5.39865
4 2 5.12792 4.12338 3.72271 -28.2863 -14.7795 11.8616
5 2 4.90014 5.84176 6.27907 16.6123 26.3691 -14.8945
3 2 6.2841 4.19273 5.14996 -25.9923 9.23532 -14.2862
2 1 5.38296 4.55435 4.71003 -0.452921 -5.16083 -0.853471
ITEM: TIMESTEP
54900
ITEM: NUMBER OF ATOMS
6
ITEM: BOX BOUNDS pp pp pp
0.0000000000000000e+00 1.0000000000000000e+01
0.0000000000000000e+00 1.0000000000000000e+01