ITEM: TIMESTEP
49600
ITEM: NUMBER OF ATOMS
6
ITEM: BOX BOUNDS pp pp pp
0.0000000000000000e+00 1.0000000000000000e+01
0.0000000000000000e+00 1.0000000000000000e+01
0.0000000000000000e+00 1.0000000000000000e+01
ITEM: ATOMS id type x y z vx vy vz
4 2 4.62973 3.60329 5.59858 11.2809 11.6704 -12.7943
2 1 4.89413 4.35158 4.83503 -6.46296 -1.47643 5.18792
3 2 5.08139 3.97291 3.81293 -24.4173 -19.8551 -12.0555
6 2 4.92289 6.0376 6.16173 22.7211 6.65842 27.7129
1 1 5.10786 5.6495 5.16583 6.33969 1.47388 -4.3958
5 2 5.34472 6.3729 4.4184 -8.11585 1.55668 -12.3021
ITEM: TIMESTEP
49700
ITEM: NUMBER OF ATOMS
6
ITEM: BOX BOUNDS pp pp pp
0.0000000000000000e+00 1.0000000000000000e+01
0.0000000000000000e+00 1.0000000000000000e+01
0.0000000000000000e+00 1.0000000000000000e+01
ITEM: ATOMS id type x y z vx vy vz
4 2 4.75396 3.56638 5.60306 -6.72924 -18.5456 -7.35278
2 1 4.52664 4.60559 5.27604 -3.4976 5.07495 7.84072
3 2 3.52071 4.89715 5.45081 18.808 10.3563 10.5561
6 2 6.51018 5.01765 4.57791 -9.03729 -6.04381 -18.611
1 1 5.47224 5.39895 4.7228 2.41783 -4.81854 -6.97454
5 2 5.23097 6.4643 4.38386 9.82513 11.1778 5.08626
ITEM: TIMESTEP
49800
ITEM: NUMBER OF ATOMS
6
ITEM: BOX BOUNDS pp pp pp
0.0000000000000000e+00 1.0000000000000000e+01
0.0000000000000000e+00 1.0000000000000000e+01
0.0000000000000000e+00 1.0000000000000000e+01
ITEM: ATOMS id type x y z vx vy vz
4 2 3.64848 4.79725 5.70118 -4.19073 21.7562 5.72786
2 1 4.66797 5.05627 5.59072 1.576 5.0167 2.08836
3 2 5.25599 5.29951 6.53068 21.7078 -6.50889 6.77339
6 2 4.83127 4.71483 3.45857 -7.43271 11.8458 3.25074
1 1 5.32489 4.94332 4.40984 -0.675335 -4.44623 -2.85302
5 2 6.35183 5.19279 4.30474 -20.8168 -33.891 -6.64031
ITEM: TIMESTEP
49900
ITEM: NUMBER OF ATOMS
6
ITEM: BOX BOUNDS pp pp pp
0.0000000000000000e+00 1.0000000000000000e+01
0.0000000000000000e+00 1.0000000000000000e+01
0.0000000000000000e+00 1.0000000000000000e+01
ITEM: ATOMS id type x y z vx vy vz
4 2 5.40533 6.48463 5.4274 15.1627 -11.6735 -8.23015
2 1 5.20201 5.36715 5.52908 8.35648 0.712297 -3.12737
3 2 5.37829 4.96091 6.50528 -7.73129 11.2594 9.4764
6 2 4.64476 5.05669 3.51692 12.3046 8.3229 -12.5851
1 1 4.79743 4.62883 4.46998 -8.1405 0.175373 2.60001
5 2 4.58071 3.54528 4.56351 -22.3098 -18.4864 17.623
ITEM: TIMESTEP
50000
ITEM: NUMBER OF ATOMS
6
ITEM: BOX BOUNDS pp pp pp
0.0000000000000000e+00 1.0000000000000000e+01
0.0000000000000000e+00 1.0000000000000000e+01
0.0000000000000000e+00 1.0000000000000000e+01
ITEM: ATOMS id type x y z vx vy vz
4 2 6.49954 4.65612 4.92454 -0.141016 -28.8548 3.19324
2 1 5.62065 5.21267 5.15367 3.26128 -0.498062 -3.58957
3 2 5.80849 6.08306 5.79736 -1.49987 -4.92086 -29.2403
6 2 4.22368 3.84312 4.18826 -12.3844 -2.45682 19.134
1 1 4.37805 4.79179 4.84559 -2.48035 1.77174 4.55848
5 2 3.48623 5.36414 5.10053 4.71957 21.0552 -4.63251
ITEM: TIMESTEP
50100
ITEM: NUMBER OF ATOMS
6
ITEM: BOX BOUNDS pp pp pp
0.0000000000000000e+00 1.0000000000000000e+01
0.0000000000000000e+00 1.0000000000000000e+01
0.0000000000000000e+00 1.0000000000000000e+01
ITEM: ATOMS id type x y z vx vy vz
6 2 4.12173 5.15886 6.25198 20.0383 12.9962 3.49793
1 1 4.42149 5.23509 5.25061 2.03758 8.64155 1.71671
4 2 6.28183 4.20558 5.38164 -2.00056 10.4195 4.48821
5 2 3.70412 5.79848 4.61237 12.6106 -22.9637 11.396
2 1 5.58354 4.75986 4.75438 -3.53283 -7.77508 -0.956353
3 2 5.83483 4.89681 3.6964 -12.8308 -10.7768 -28.4426
ITEM: TIMESTEP
50200
ITEM: NUMBER OF ATOMS
6
ITEM: BOX BOUNDS pp pp pp
0.0000000000000000e+00 1.0000000000000000e+01
0.0000000000000000e+00 1.0000000000000000e+01
0.0000000000000000e+00 1.0000000000000000e+01
ITEM: ATOMS id type x y z vx vy vz
6 2 5.56033 6.44235 5.06233 1.99108 -12.8576 -27.5938
1 1 4.87402 5.61151 5.25459 8.85432 2.40353 -1.91207
4 2 6.08547 4.15489 4.22726 -13.0657 -0.493341 -16.2167
5 2 3.967 5.84406 5.75698 -19.8286 1.30556 25.4085
2 1 5.12004 4.39136 4.74955 -6.70531 -2.11957 1.69832
3 2 4.46036 3.52411 4.90601 5.29543 8.66173 20.9491
ITEM: TIMESTEP
50300
ITEM: NUMBER OF ATOMS
6
ITEM: BOX BOUNDS pp pp pp
0.0000000000000000e+00 1.0000000000000000e+01
0.0000000000000000e+00 1.0000000000000000e+01
0.0000000000000000e+00 1.0000000000000000e+01
ITEM: ATOMS id type x y z vx vy vz
6 2 5.10862 6.34978 4.18191 -12.0848 21.2139 -14.6657
1 1 5.37532 5.55032 4.94146 6.10325 -5.5432 -3.79832
4 2 3.73498 4.26672 4.49446 -6.88248 20.8336 15.4388
5 2 6.30759 5.70539 5.53994 -3.40326 -16.1919 -19.2482
2 1 4.62171 4.44921 5.05876 -5.84944 2.87256 5.72557
3 2 4.88661 3.68332 5.78294 19.3461 5.96802 -4.49022
ITEM: TIMESTEP
50400
ITEM: NUMBER OF ATOMS
6
ITEM: BOX BOUNDS pp pp pp
0.0000000000000000e+00 1.0000000000000000e+01
0.0000000000000000e+00 1.0000000000000000e+01
0.0000000000000000e+00 1.0000000000000000e+01
ITEM: ATOMS id type x y z vx vy vz
6 2 5.94738 6.08906 4.41974 -11.4671 -39.5768 12.7483
1 1 5.42886 5.14261 4.51384 0.453126 -2.94046 -3.62248
4 2 4.45337 5.56249 6.32752 25.8773 11.831 15.3705
5 2 5.56202 4.45791 3.62713 -25.3624 -6.09968 -12.3309
2 1 4.57109 4.85644 5.49511 1.62722 5.47243 2.64575
3 2 4.04026 3.90143 5.52075 -13.8374 3.67421 -4.14904
ITEM: TIMESTEP
50500
ITEM: NUMBER OF ATOMS
6
ITEM: BOX BOUNDS pp pp pp
0.0000000000000000e+00 1.0000000000000000e+01
0.0000000000000000e+00 1.0000000000000000e+01
0.0000000000000000e+00 1.0000000000000000e+01
ITEM: ATOMS id type x y z vx vy vz
6 2 5.71293 3.83938 4.25866 -6.17245 -21.731 8.26349
1 1 5.05466 4.71497 4.39622 -7.36297 -4.84275 -0.195123
4 2 5.53285 4.91201 6.44822 -10.1425 -7.91673 -10.4248
5 2 4.49968 5.05828 3.60386 3.05092 17.3885 17.5886
2 1 4.94066 5.28684 5.59445 6.84368 4.82398 -0.618864
3 2 4.31275 6.16836 5.80229 19.4518 12.4828 -5.72773
ITEM: TIMESTEP
50600
ITEM: NUMBER OF ATOMS
6
ITEM: BOX BOUNDS pp pp pp
0.0000000000000000e+00 1.0000000000000000e+01
0.0000000000000000e+00 1.0000000000000000e+01
0.0000000000000000e+00 1.0000000000000000e+01
ITEM: ATOMS id type x y z vx vy vz
6 2 3.59541 4.44865 5.15561 -24.5452 21.0555 12.7519
1 1 4.51641 4.6828 4.67992 -2.96542 1.8103 4.75226
4 2 5.42672 5.54901 6.38632 -6.74878 6.17941 3.13398
5 2 4.59819 4.48238 3.55119 -1.99214 -14.346 -5.95665
2 1 5.48222 5.31523 5.3275 5.80306 -0.0422903 -4.71738
3 2 6.3985 5.54295 4.82023 -0.527404 -33.9567 -10.3449
ITEM: TIMESTEP
50700
ITEM: NUMBER OF ATOMS
6
ITEM: BOX BOUNDS pp pp pp
0.0000000000000000e+00 1.0000000000000000e+01
0.0000000000000000e+00 1.0000000000000000e+01
0.0000000000000000e+00 1.0000000000000000e+01
ITEM: ATOMS id type x y z vx vy vz
6 2 3.72276 5.91787 4.76164 22.1293 -11.8752 -11.4072
1 1 4.3517 5.00988 5.09342 -1.64469 6.38323 6.1393
4 2 6.13963 5.78798 4.37649 -2.53969 -12.4212 -17.7254
5 2 3.80269 4.23126 5.59444 2.43963 11.0713 19.016
2 1 5.65616 4.98777 4.90851 -0.365917 -4.4752 -6.30293
3 2 6.24371 4.09051 5.24627 1.92939 -9.51122 12.0666
ITEM: TIMESTEP
50800
ITEM: NUMBER OF ATOMS
6
ITEM: BOX BOUNDS pp pp pp
0.0000000000000000e+00 1.0000000000000000e+01
0.0000000000000000e+00 1.0000000000000000e+01
0.0000000000000000e+00 1.0000000000000000e+01
ITEM: ATOMS id type x y z vx vy vz
6 2 3.6715 5.68612 5.03793 -10.7146 2.3797 7.02436
1 1 4.66899 5.49458 5.29151 5.36686 4.99759 2.2501
4 2 4.82931 3.79604 4.00181 -10.6164 -10.2779 26.1563
5 2 5.18742 6.14458 5.98318 15.4841 -2.95385 -33.4846
2 1 5.3296 4.51416 4.71041 -4.42677 -4.01443 -1.41607
3 2 6.33111 4.26869 4.95593 -5.35525 -0.863288 -9.63442
ITEM: TIMESTEP
50900
ITEM: NUMBER OF ATOMS
6
ITEM: BOX BOUNDS pp pp pp
0.0000000000000000e+00 1.0000000000000000e+01
0.0000000000000000e+00 1.0000000000000000e+01
0.0000000000000000e+00 1.0000000000000000e+01
ITEM: ATOMS id type x y z vx vy vz
6 2 5.3098 6.03206 6.12042 24.1464 1.12753 -7.20556
1 1 5.16885 5.62409 5.10748 6.5261 -2.45407 -1.63785
4 2 4.6102 3.71451 5.69837 10.1838 -4.43336 28.9186
5 2 5.39287 6.29889 4.25496 -5.39146 23.7825 -24.9876
2 1 4.83138 4.37235 4.89764 -7.55109 -0.0222204 0.89974
3 2 4.6869 3.99663 3.86713 -16.7248 9.03103 12.07
ITEM: TIMESTEP
51000
ITEM: NUMBER OF ATOMS
6
ITEM: BOX BOUNDS pp pp pp
0.0000000000000000e+00 1.0000000000000000e+01
0.0000000000000000e+00 1.0000000000000000e+01
0.0000000000000000e+00 1.0000000000000000e+01
ITEM: ATOMS id type x y z vx vy vz
6 2 6.39315 4.80826 4.3058 -16.8952 -15.9874 -23.9793
1 1 5.46418 5.31833 4.66867 1.63043 -1.61588 -4.40559
4 2 4.71021 3.62971 5.62802 -15.6082 17.6674 -0.969379
5 2 5.36788 6.37229 4.35781 8.03551 -26.123 6.8838
2 1 4.52798 4.68131 5.33198 1.02421 1.82915 3.20118
3 2 3.62455 5.19363 5.70242 -7.16506 21.9017 32.4167
ITEM: TIMESTEP
51100
ITEM: NUMBER OF ATOMS
6
ITEM: BOX BOUNDS pp pp pp
0.0000000000000000e+00 1.0000000000000000e+01
0.0000000000000000e+00 1.0000000000000000e+01
0.0000000000000000e+00 1.0000000000000000e+01
ITEM: ATOMS id type x y z vx vy vz
6 2 4.63024 4.69926 3.57961 -2.24653 13.3537 0.323184
1 1 5.25415 4.8935 4.39499 -5.2106 -6.12621 -2.00879
5 2 6.31597 4.81749 4.26887 4.68717 -23.6583 -3.69102
4 2 3.65266 5.17873 5.80135 -4.84368 21.5727 13.2817
2 1 4.74809 5.10531 5.59699 6.10085 6.92381 2.43729
3 2 5.37693 5.31826 6.44764 -8.20523 -20.7723 -15.0201
ITEM: TIMESTEP
51200
ITEM: NUMBER OF ATOMS
6
ITEM: BOX BOUNDS pp pp pp
0.0000000000000000e+00 1.0000000000000000e+01
0.0000000000000000e+00 1.0000000000000000e+01
0.0000000000000000e+00 1.0000000000000000e+01
ITEM: ATOMS id type x y z vx vy vz
6 2 4.56703 5.02318 3.48076 -8.81343 -3.2735 -18.8817
1 1 4.71732 4.62581 4.53587 -3.57875 -0.846822 4.6249
5 2 4.27494 3.64018 4.74038 -36.2813 4.64493 1.86816
4 2 5.69255 6.31934 5.25726 24.0963 -19.1674 -13.2353
2 1 5.28701 5.37652 5.46522 4.97953 1.93302 -2.77971
3 2 5.41626 4.98911 6.51045 4.30659 4.85273 8.26137
ITEM: TIMESTEP
51300
ITEM: NUMBER OF ATOMS
6
ITEM: BOX BOUNDS pp pp pp
0.0000000000000000e+00 1.0000000000000000e+01
0.0000000000000000e+00 1.0000000000000000e+01
0.0000000000000000e+00 1.0000000000000000e+01
ITEM: ATOMS id type x y z vx vy vz
6 2 4.03797 3.8692 4.55691 -8.20079 24.1606 27.4247
1 1 4.36318 4.85122 4.89436 -4.14683 1.24238 5.05527
5 2 3.52484 5.55664 5.17416 11.6362 6.5332 -14.5724
4 2 6.43958 4.40425 4.81801 3.21944 -8.11181 13.4472
2 1 5.64058 5.15448 5.10539 1.84437 -3.80238 -5.79662
3 2 5.95526 6.10167 5.45574 20.7816 7.92308 -17.4655
ITEM: TIMESTEP
51400
ITEM: NUMBER OF ATOMS
6
ITEM: BOX BOUNDS pp pp pp
0.0000000000000000e+00 1.0000000000000000e+01
0.0000000000000000e+00 1.0000000000000000e+01
0.0000000000000000e+00 1.0000000000000000e+01
ITEM: ATOMS id type x y z vx vy vz
6 2 4.3629 5.41844 6.35343 14.9275 29.7473 4.64252
1 1 4.47403 5.3173 5.27553 2.62243 3.94593 2.35358
5 2 3.78793 5.79724 4.68297 -4.65587 4.29661 4.98432
4 2 6.2795 4.16138 5.29425 13.1976 -11.0909 -1.43986
2 1 5.52011 4.68399 4.72928 -3.46558 -3.30017 -4.06871
3 2 5.64196 4.60711 3.61387 -13.4221 -30.6481 12.2506
ITEM: TIMESTEP
51500
ITEM: NUMBER OF ATOMS
6
ITEM: BOX BOUNDS pp pp pp
0.0000000000000000e+00 1.0000000000000000e+01
0.0000000000000000e+00 1.0000000000000000e+01
0.0000000000000000e+00 1.0000000000000000e+01
ITEM: ATOMS id type x y z vx vy vz
6 2 5.67065 6.38166 4.88181 11.1009 21.0919 -29.0289
1 1 4.95226 5.63448 5.20321 4.39062 -0.78516 0.0894865
5 2 4.18941 5.99204 5.98569 12.6152 21.0508 14.2808
4 2 5.78791 4.05422 4.05217 -32.6422 -2.65296 1.10804
2 1 5.04922 4.3638 4.79446 -3.32418 -1.87218 -0.933095
3 2 4.33678 3.59218 5.10993 -3.7818 -7.82467 23.6926
ITEM: TIMESTEP
51600
ITEM: NUMBER OF ATOMS
6
ITEM: BOX BOUNDS pp pp pp
0.0000000000000000e+00 1.0000000000000000e+01
0.0000000000000000e+00 1.0000000000000000e+01
0.0000000000000000e+00 1.0000000000000000e+01
ITEM: ATOMS id type x y z vx vy vz
6 2 5.17873 6.37466 4.1474 10.6755 -19.4263 15.578
1 1 5.42128 5.49963 4.86285 2.59506 0.169098 -5.50217
5 2 6.43836 5.53543 5.25211 14.2355 -17.4427 -23.6381
4 2 3.55674 4.47859 4.73319 -21.2472 11.3216 27.9975
2 1 4.5784 4.49207 5.1414 -2.53981 1.69991 3.93615
3 2 4.83243 3.70977 5.81861 -4.32225 3.27614 -1.27658
ITEM: TIMESTEP
51700
ITEM: NUMBER OF ATOMS
6
ITEM: BOX BOUNDS pp pp pp
0.0000000000000000e+00 1.0000000000000000e+01
0.0000000000000000e+00 1.0000000000000000e+01
0.0000000000000000e+00 1.0000000000000000e+01
ITEM: ATOMS id type x y z vx vy vz
6 2 6.11524 5.82798 4.36857 20.3822 -5.12758 -6.91588
1 1 5.38417 5.07673 4.44884 -1.03809 -6.33639 -4.62055
5 2 5.3345 4.37628 3.63188 -24.7269 22.3468 18.3883
4 2 4.63125 5.61846 6.39333 26.0825 2.83071 13.9461
2 1 4.62301 4.92595 5.54914 0.538095 3.24451 1.39909
3 2 3.83593 4.14495 5.63216 -15.7799 16.793 12.9685
ITEM: TIMESTEP
51800
ITEM: NUMBER OF ATOMS
6
ITEM: BOX BOUNDS pp pp pp
0.0000000000000000e+00 1.0000000000000000e+01
0.0000000000000000e+00 1.0000000000000000e+01
0.0000000000000000e+00 1.0000000000000000e+01
ITEM: ATOMS id type x y z vx vy vz
6 2 5.39214 3.69687 4.29682 -32.9267 -8.65048 6.61238
1 1 4.96262 4.67157 4.41518 -2.61151 -3.15466 3.37594
5 2 4.4258 5.03748 3.52249 -22.7691 9.71979 -32.8162
4 2 5.56865 4.93507 6.45715 -2.06199 -2.83187 -9.27066
2 1 5.03696 5.32737 5.58367 5.0831 2.30502 0.987883
3 2 4.62092 6.34277 5.73906 28.3061 11.887 -16.5253
ITEM: TIMESTEP
51900
ITEM: NUMBER OF ATOMS
6
ITEM: BOX BOUNDS pp pp pp
0.0000000000000000e+00 1.0000000000000000e+01
0.0000000000000000e+00 1.0000000000000000e+01
0.0000000000000000e+00 1.0000000000000000e+01
ITEM: ATOMS id type x y z vx vy vz
6 2 3.42839 4.61856 5.27396 -16.2179 25.1094 13.8043
1 1 4.45332 4.73858 4.73318 -2.61037 1.06263 1.22161
5 2 4.42683 4.26756 3.74434 -2.24723 -6.12934 23.9873
4 2 5.55901 5.7399 6.25252 10.8063 8.10134 -13.2764
2 1 5.55716 5.26439 5.26867 2.73442 -0.76401 -2.61766
3 2 6.46336 5.33813 4.70899 6.18056 -30.6397 -7.87969
ITEM: TIMESTEP
52000
ITEM: NUMBER OF ATOMS
6
ITEM: BOX BOUNDS pp pp pp
0.0000000000000000e+00 1.0000000000000000e+01
0.0000000000000000e+00 1.0000000000000000e+01
0.0000000000000000e+00 1.0000000000000000e+01
ITEM: ATOMS id type x y z vx vy vz
6 2 3.80472 5.91044 4.77137 25.4538 -9.68904 0.715427
1 1 4.35652 5.09968 5.15236 -1.55987 4.83724 2.6606
5 2 3.79786 4.4434 5.87515 18.019 24.7806 18.4309
4 2 6.1987 5.52123 4.13633 -1.03677 -11.7842 -35.336
2 1 5.63807 4.90357 4.8468 -1.62094 -5.40322 -1.12826
3 2 6.2657 4.08586 5.22898 -4.53322 3.43689 -2.06989
ITEM: TIMESTEP
52100
ITEM: NUMBER OF ATOMS
6
ITEM: BOX BOUNDS pp pp pp
0.0000000000000000e+00 1.0000000000000000e+01
0.0000000000000000e+00 1.0000000000000000e+01
0.0000000000000000e+00 1.0000000000000000e+01
ITEM: ATOMS id type x y z vx vy vz
2 1 5.24301 4.44626 4.73382 -6.16199 -3.78743 -0.426418
6 2 3.67815 5.79426 5.27363 3.27271 7.42416 17.1264
4 2 4.64265 3.73543 4.17539 -15.5528 6.75186 31.9831
5 2 5.33463 6.23056 5.82972 26.6131 22.6376 -12.7754
3 2 6.32924 4.18554 4.71577 8.55844 7.40298 -5.39613
1 1 4.75848 5.55826 5.2668 4.24094 0.076761 -2.16991
ITEM: TIMESTEP
52200
ITEM: NUMBER OF ATOMS
6
ITEM: BOX BOUNDS pp pp pp
0.0000000000000000e+00 1.0000000000000000e+01
0.0000000000000000e+00 1.0000000000000000e+01
0.0000000000000000e+00 1.0000000000000000e+01
ITEM: ATOMS id type x y z vx vy vz
2 1 4.74582 4.38857 4.9473 -2.19241 2.879 2.23935
6 2 5.65057 6.07877 5.96615 35.195 -10.8695 1.82288
4 2 4.64577 3.71476 5.84367 0.295591 5.49881 11.5835
5 2 5.36351 6.31257 4.17566 -8.28033 -13.1227 -3.20854
3 2 4.38635 4.01435 4.03025 -29.7056 8.40619 16.2686
1 1 5.25051 5.60128 5.05154 2.40182 -2.03248 -4.46042
ITEM: TIMESTEP
52300
ITEM: NUMBER OF ATOMS
6
ITEM: BOX BOUNDS pp pp pp
0.0000000000000000e+00 1.0000000000000000e+01
0.0000000000000000e+00 1.0000000000000000e+01
0.0000000000000000e+00 1.0000000000000000e+01
ITEM: ATOMS id type x y z vx vy vz
2 1 4.55627 4.7515 5.41111 2.985 6.97926 2.0905
6 2 6.21332 4.60715 4.17302 -35.3723 -9.94159 -8.15762
4 2 4.45016 3.71864 5.63446 -14.8963 -4.68672 -0.949965
5 2 5.54351 6.30203 4.38811 4.42854 -4.59104 5.79659
3 2 3.71829 5.35208 5.89206 22.5056 6.04489 13.2749
1 1 5.45021 5.25015 4.58169 -1.02677 -5.87366 -2.92667
ITEM: TIMESTEP
52400
ITEM: NUMBER OF ATOMS
6
ITEM: BOX BOUNDS pp pp pp
0.0000000000000000e+00 1.0000000000000000e+01
0.0000000000000000e+00 1.0000000000000000e+01
0.0000000000000000e+00 1.0000000000000000e+01
ITEM: ATOMS id type x y z vx vy vz
2 1 4.81744 5.18147 5.60757 0.921603 2.34975 -2.13975
6 2 4.4814 4.78355 3.55142 -14.5293 1.40016 -13.8891
4 2 3.7798 5.48385 5.86038 33.3447 22.4917 -12.6276
5 2 6.20971 4.51833 4.16578 -6.13946 -36.0115 -5.29271
3 2 5.51806 5.21605 6.41917 30.6309 -7.31105 -0.990264
1 1 5.18369 4.81834 4.39286 -4.55592 -0.719121 4.8923
ITEM: TIMESTEP
52500
ITEM: NUMBER OF ATOMS
6
ITEM: BOX BOUNDS pp pp pp
0.0000000000000000e+00 1.0000000000000000e+01
0.0000000000000000e+00 1.0000000000000000e+01
0.0000000000000000e+00 1.0000000000000000e+01
ITEM: ATOMS id type x y z vx vy vz
2 1 5.38584 5.34878 5.41521 1.61384 -5.7539 -3.15783
6 2 4.56399 4.8394 3.49145 6.06027 -7.42251 18.1163
4 2 5.90996 6.24085 5.04905 30.2321 5.73067 -23.6822
5 2 4.05679 3.75399 4.92742 -16.1263 22.9176 12.8952
3 2 5.39509 5.12606 6.46255 3.73849 17.2744 -18.9288
1 1 4.62059 4.65452 4.59077 -3.61991 2.52296 4.13127
ITEM: TIMESTEP
52600
ITEM: NUMBER OF ATOMS
6
ITEM: BOX BOUNDS pp pp pp
0.0000000000000000e+00 1.0000000000000000e+01
0.0000000000000000e+00 1.0000000000000000e+01
0.0000000000000000e+00 1.0000000000000000e+01
ITEM: ATOMS id type x y z vx vy vz
2 1 5.6545 5.08186 5.02237 -2.36649 -6.14601 -3.01951
6 2 3.96005 3.93476 4.84319 -6.77571 0.077615 32.358
4 2 6.33311 4.26336 4.90374 -10.4883 -0.309133 4.72505
5 2 3.67236 5.73237 5.09061 20.3753 4.09532 -0.762484
3 2 6.1294 6.11116 5.19091 13.3254 10.1863 -28.8538
1 1 4.33773 4.91461 4.9754 0.98712 4.96692 2.3929
ITEM: TIMESTEP
52700
ITEM: NUMBER OF ATOMS
6
ITEM: BOX BOUNDS pp pp pp
0.0000000000000000e+00 1.0000000000000000e+01
0.0000000000000000e+00 1.0000000000000000e+01
0.0000000000000000e+00 1.0000000000000000e+01
ITEM: ATOMS id type x y z vx vy vz
2 1 5.43655 4.59617 4.70524 -4.13846 -4.14074 0.221277
6 2 4.5996 5.6123 6.36809 18.4076 21.0438 1.09569
4 2 6.33188 4.18619 5.27876 -7.84945 5.93935 -9.50874
5 2 3.70203 5.78505 4.69649 -24.4254 10.2478 -3.6335
3 2 5.38881 4.42339 3.65884 -26.7065 -14.7638 14.1607
1 1 4.56179 5.40322 5.29473 7.54341 2.2553 -0.398696
ITEM: TIMESTEP
52800
ITEM: NUMBER OF ATOMS
6
ITEM: BOX BOUNDS pp pp pp
0.0000000000000000e+00 1.0000000000000000e+01
0.0000000000000000e+00 1.0000000000000000e+01
0.0000000000000000e+00 1.0000000000000000e+01
ITEM: ATOMS id type x y z vx vy vz
2 1 4.95662 4.35343 4.82754 -4.87065 -0.909611 5.70737
6 2 5.70371 6.36302 4.59083 -0.789444 -5.68997 -11.4911
4 2 5.51075 4.02552 4.00351 -24.6332 -1.2317 -22.8778
5 2 4.48792 6.03596 6.03081 38.397 -5.0384 -6.63595
3 2 4.31971 3.6704 5.39969 6.65135 8.81603 3.85591
1 1 5.04173 5.63857 5.17053 3.22366 1.17346 -2.58982
ITEM: TIMESTEP
52900
ITEM: NUMBER OF ATOMS
6
ITEM: BOX BOUNDS pp pp pp
0.0000000000000000e+00 1.0000000000000000e+01
0.0000000000000000e+00 1.0000000000000000e+01
0.0000000000000000e+00 1.0000000000000000e+01
ITEM: ATOMS id type x y z vx vy vz
2 1 4.53989 4.57596 5.22785 -1.91907 5.63337 3.9095
6 2 5.14772 6.26609 4.25256 7.81852 -5.07018 5.88924
4 2 3.4723 4.6765 4.95544 -5.59092 13.0314 26.25
5 2 6.52295 5.31819 5.04313 -1.68445 -22.1231 -17.377
3 2 4.85471 3.68568 5.7924 1.06162 -25.2493 10.6881
1 1 5.46051 5.4285 4.76865 1.7844 -2.32598 -6.0453
ITEM: TIMESTEP
53000
ITEM: NUMBER OF ATOMS
6
ITEM: BOX BOUNDS pp pp pp
0.0000000000000000e+00 1.0000000000000000e+01
0.0000000000000000e+00 1.0000000000000000e+01
0.0000000000000000e+00 1.0000000000000000e+01
ITEM: ATOMS id type x y z vx vy vz
2 1 4.66755 5.00463 5.5742 2.07317 2.2807 5.3671
6 2 6.24251 5.64793 4.29934 13.5465 -22.0993 -3.41787
4 2 4.97326 5.6368 6.44613 16.5246 0.807376 1.36296
5 2 4.99972 4.37859 3.62377 -17.5137 -12.9399 -26.8802
3 2 3.75799 4.3842 5.69404 1.09639 37.2962 -3.83007
1 1 5.33488 4.99135 4.42064 -3.21899 -2.53787 -2.61744
ITEM: TIMESTEP
53100
ITEM: NUMBER OF ATOMS
6
ITEM: BOX BOUNDS pp pp pp
0.0000000000000000e+00 1.0000000000000000e+01
0.0000000000000000e+00 1.0000000000000000e+01
0.0000000000000000e+00 1.0000000000000000e+01
ITEM: ATOMS id type x y z vx vy vz
5 2 4.42988 5.09211 3.51788 9.64391 -12.6062 12.4646
1 1 4.85448 4.63645 4.46721 -8.04657 -0.715037 -1.39162
6 2 5.11607 3.57316 4.38942 -20.4183 -26.1715 3.82386
3 2 4.89376 6.41198 5.59842 26.4904 8.09623 -9.93801
2 1 5.14834 5.36882 5.54208 7.11387 3.08364 0.977272
4 2 5.52911 4.85949 6.38532 -4.60178 2.45698 -1.41304
ITEM: TIMESTEP
53200
ITEM: NUMBER OF ATOMS
6
ITEM: BOX BOUNDS pp pp pp
0.0000000000000000e+00 1.0000000000000000e+01
0.0000000000000000e+00 1.0000000000000000e+01
0.0000000000000000e+00 1.0000000000000000e+01
ITEM: ATOMS id type x y z vx vy vz
5 2 4.31768 4.17494 3.8932 -1.7164 -28.9052 2.8138
1 1 4.40358 4.77541 4.80721 -9.8465 4.49872 3.65354
6 2 3.49563 4.9973 5.3449 25.9161 12.4475 -6.9296
3 2 6.50836 4.99992 4.62793 15.5007 -15.9196 -2.69566
2 1 5.59287 5.22314 5.19584 4.71667 -3.71138 -2.21521
4 2 5.72313 5.84465 6.09946 21.4272 22.9953 -10.3279
ITEM: TIMESTEP
53300
ITEM: NUMBER OF ATOMS
6
ITEM: BOX BOUNDS pp pp pp
0.0000000000000000e+00 1.0000000000000000e+01
0.0000000000000000e+00 1.0000000000000000e+01
0.0000000000000000e+00 1.0000000000000000e+01
ITEM: ATOMS id type x y z vx vy vz
5 2 3.93507 4.68934 6.02311 1.27016 30.2015 10.6191
1 1 4.40057 5.18797 5.22407 0.582659 5.04508 5.79229
6 2 3.81169 5.96682 4.66895 -16.8848 10.859 -10.0096
3 2 6.22259 4.08015 5.28964 -0.424591 4.70898 2.95802
2 1 5.5927 4.81016 4.78301 2.3455 -7.18983 -5.38474
4 2 6.11328 5.28548 3.93571 -18.853 -20.2125 -8.42384
ITEM: TIMESTEP
53400
ITEM: NUMBER OF ATOMS
6
ITEM: BOX BOUNDS pp pp pp
0.0000000000000000e+00 1.0000000000000000e+01
0.0000000000000000e+00 1.0000000000000000e+01
0.0000000000000000e+00 1.0000000000000000e+01
ITEM: ATOMS id type x y z vx vy vz
5 2 5.57509 6.40032 5.56196 8.23161 2.78326 -14.6042
1 1 4.83788 5.58183 5.25301 3.33427 5.92593 -2.99775
6 2 3.83934 5.90698 5.41213 12.5875 7.55587 31.3343
3 2 6.19434 4.13282 4.60923 -8.25931 -2.06028 -18.8729
2 1 5.16161 4.40793 4.74119 -2.54226 -5.40076 2.15314
4 2 4.39979 3.68146 4.48761 -21.9975 -14.5368 12.2072
ITEM: TIMESTEP
53500
ITEM: NUMBER OF ATOMS
6
ITEM: BOX BOUNDS pp pp pp
0.0000000000000000e+00 1.0000000000000000e+01
0.0000000000000000e+00 1.0000000000000000e+01
0.0000000000000000e+00 1.0000000000000000e+01
ITEM: ATOMS id type x y z vx vy vz
5 2 5.2571 6.23292 4.15527 -11.977 7.53137 -9.50514
1 1 5.33713 5.57108 4.97067 7.01091 -0.248644 -3.7999
6 2 5.91213 5.97505 5.82988 13.5744 -18.6954 -20.7745
3 2 4.06852 4.03804 4.14612 -24.0296 -3.66166 12.7104
2 1 4.66925 4.43144 5.03002 -5.10179 1.77008 6.42743
4 2 4.68859 3.72356 5.86231 -0.317061 -3.30388 -13.7406
ITEM: TIMESTEP
53600
ITEM: NUMBER OF ATOMS
6
ITEM: BOX BOUNDS pp pp pp
0.0000000000000000e+00 1.0000000000000000e+01
0.0000000000000000e+00 1.0000000000000000e+01
0.0000000000000000e+00 1.0000000000000000e+01
ITEM: ATOMS id type x y z vx vy vz
5 2 5.66983 6.22436 4.30282 23.6601 -15.9302 -2.36415
1 1 5.44164 5.17057 4.53217 -4.31793 -1.87793 -3.38492
6 2 5.97031 4.42861 3.9189 -1.53955 -21.1925 -26.2939
3 2 4.03808 5.4899 6.09497 23.5444 5.89746 0.0751261
2 1 4.55738 4.83641 5.46519 1.88107 3.33575 6.58588
4 2 4.33589 3.77353 5.71659 -16.6271 13.8536 -9.56004
ITEM: TIMESTEP
53700
ITEM: NUMBER OF ATOMS
6
ITEM: BOX BOUNDS pp pp pp
0.0000000000000000e+00 1.0000000000000000e+01
0.0000000000000000e+00 1.0000000000000000e+01
0.0000000000000000e+00 1.0000000000000000e+01
ITEM: ATOMS id type x y z vx vy vz
5 2 6.03711 4.21896 4.0726 -15.5373 -21.382 1.47154
1 1 5.09758 4.74665 4.39501 -7.48862 -3.51482 0.223454
6 2 4.41465 4.86813 3.5427 15.5709 4.75963 7.4191
3 2 5.62563 5.10895 6.43803 1.07633 -11.1021 0.589595
2 1 4.89649 5.25891 5.61106 8.10898 3.21781 -1.68271
4 2 3.99575 5.73731 5.87618 -8.5023 31.2636 7.90839
ITEM: TIMESTEP
53800
ITEM: NUMBER OF ATOMS
6
ITEM: BOX BOUNDS pp pp pp
0.0000000000000000e+00 1.0000000000000000e+01
0.0000000000000000e+00 1.0000000000000000e+01
0.0000000000000000e+00 1.0000000000000000e+01
ITEM: ATOMS id type x y z vx vy vz
5 2 3.81645 4.02528 5.0824 -8.24019 20.6143 10.4815
1 1 4.5424 4.65577 4.64549 -5.61472 3.0358 4.20483
6 2 4.46641 4.74787 3.56825 7.69529 -10.786 5.28611
3 2 5.53584 5.24129 6.46151 3.31288 20.7759 22.1128
2 1 5.45261 5.34079 5.3533 5.40014 -3.80053 -7.26111
4 2 6.24327 6.02609 4.90414 -0.211065 -21.4916 -1.46143
ITEM: TIMESTEP
53900
ITEM: NUMBER OF ATOMS
6
ITEM: BOX BOUNDS pp pp pp
0.0000000000000000e+00 1.0000000000000000e+01
0.0000000000000000e+00 1.0000000000000000e+01
0.0000000000000000e+00 1.0000000000000000e+01
ITEM: ATOMS id type x y z vx vy vz
5 2 3.7121 5.89027 5.00683 -2.78078 12.9872 -10.8813
1 1 4.3274 4.97924 5.05642 2.88436 5.32446 4.95647
6 2 3.78486 4.02666 5.1226 -11.9314 -4.53271 22.7611
3 2 6.27343 5.93911 4.90695 -20.4539 -38.3915 -21.2368
2 1 5.66782 5.02373 4.93963 0.111962 -1.72769 -5.38397
4 2 6.28906 4.10815 5.01247 -0.538277 -12.9224 14.4511
ITEM: TIMESTEP
54000
ITEM: NUMBER OF ATOMS
6
ITEM: BOX BOUNDS pp pp pp
0.0000000000000000e+00 1.0000000000000000e+01
0.0000000000000000e+00 1.0000000000000000e+01
0.0000000000000000e+00 1.0000000000000000e+01
ITEM: ATOMS id type x y z vx vy vz
5 2 3.71601 5.89997 4.81979 3.02249 -12.3018 13.1608
1 1 4.62389 5.46422 5.31008 6.72915 5.04 -0.704656
6 2 4.87228 5.92053 6.28154 13.2616 10.6684 -14.1828
3 2 5.09089 4.13169 3.71509 -25.2853 -14.3246 -9.56931
2 1 5.38347 4.52823 4.69445 -5.19602 -5.15488 2.56655
4 2 6.23559 4.1373 5.13143 -9.26775 17.3269 -11.5951
ITEM: TIMESTEP
54100
ITEM: NUMBER OF ATOMS
6
ITEM: BOX BOUNDS pp pp pp
0.0000000000000000e+00 1.0000000000000000e+01
0.0000000000000000e+00 1.0000000000000000e+01
0.0000000000000000e+00 1.0000000000000000e+01
ITEM: ATOMS id type x y z vx vy vz
3 2 4.39581 3.73605 5.59697 4.35951 -5.18552 20.8524
2 1 4.86005 4.35225 4.86819 -5.57428 3.45176 3.54752
5 2 4.81487 6.14045 6.03223 16.98 -0.819546 9.34367
4 2 5.22361 3.83894 3.90695 -16.6464 -8.32263 -19.2342
1 1 5.13622 5.64809 5.13773 6.56994 -0.632334 -3.19429
6 2 5.61265 6.28002 4.39516 -16.5575 -19.2688 -15.171
ITEM: TIMESTEP
54200
ITEM: NUMBER OF ATOMS
6
ITEM: BOX BOUNDS pp pp pp
0.0000000000000000e+00 1.0000000000000000e+01
0.0000000000000000e+00 1.0000000000000000e+01
0.0000000000000000e+00 1.0000000000000000e+01
ITEM: ATOMS id type x y z vx vy vz
3 2 4.73919 3.66202 5.88392 3.69307 9.47518 -18.0438
2 1 4.52157 4.6361 5.29069 -1.15856 4.68126 6.71416
5 2 6.51432 5.03038 4.71143 -9.94153 -18.7346 -10.6261
4 2 3.48139 4.93191 5.29669 5.41905 19.0378 14.8409
1 1 5.48393 5.37026 4.70494 1.69137 -7.00433 -5.63372
6 2 5.20201 6.29958 4.16186 -5.51957 17.9035 0.954313
ITEM: TIMESTEP
54300
ITEM: NUMBER OF ATOMS
6
ITEM: BOX BOUNDS pp pp pp
0.0000000000000000e+00 1.0000000000000000e+01
0.0000000000000000e+00 1.0000000000000000e+01
0.0000000000000000e+00 1.0000000000000000e+01
ITEM: ATOMS id type x y z vx vy vz
3 2 3.75837 4.6793 5.78634 -9.00013 15.0855 -8.39504
2 1 4.70859 5.08277 5.60289 3.3684 6.17887 3.86764
5 2 4.71843 4.43527 3.55907 -20.0782 12.0074 -0.995834
4 2 5.25598 5.55966 6.4204 19.6581 -17.6126 -24.564
1 1 5.2936 4.91741 4.40441 -2.02007 -5.02668 -0.986576
6 2 6.2436 5.32317 4.149 -6.64661 -23.2099 -0.376166
ITEM: TIMESTEP
54400
ITEM: NUMBER OF ATOMS
6
ITEM: BOX BOUNDS pp pp pp
0.0000000000000000e+00 1.0000000000000000e+01
0.0000000000000000e+00 1.0000000000000000e+01
0.0000000000000000e+00 1.0000000000000000e+01
ITEM: ATOMS id type x y z vx vy vz
3 2 5.28226 6.46838 5.42039 20.3572 0.394662 -13.08
2 1 5.22415 5.3782 5.50227 6.80702 1.85082 -5.24731
5 2 4.40214 5.03936 3.60332 6.93756 18.7735 -7.48669
4 2 5.62615 4.88706 6.39704 0.461779 -14.212 23.8026
1 1 4.77281 4.62983 4.49732 -8.18372 -2.58992 2.85541
6 2 4.72808 3.50911 4.58596 -11.3517 3.85107 25.2662
ITEM: TIMESTEP
54500
ITEM: NUMBER OF ATOMS
6
ITEM: BOX BOUNDS pp pp pp
0.0000000000000000e+00 1.0000000000000000e+01
0.0000000000000000e+00 1.0000000000000000e+01
0.0000000000000000e+00 1.0000000000000000e+01
ITEM: ATOMS id type x y z vx vy vz
3 2 6.49095 4.69033 4.62294 -9.84872 -31.2101 3.91449
2 1 5.62008 5.17693 5.12308 3.98461 -0.908639 -4.23766
5 2 4.16552 4.07119 4.06638 4.99567 4.26428 24.4376
4 2 5.90483 5.91365 5.8901 -2.09648 -4.75095 -25.1584
1 1 4.36983 4.82216 4.88042 -2.58018 0.669197 3.40049
6 2 3.56136 5.3353 5.38073 -9.78579 34.55 6.78217
ITEM: TIMESTEP
54600
ITEM: NUMBER OF ATOMS
6
ITEM: BOX BOUNDS pp pp pp
0.0000000000000000e+00 1.0000000000000000e+01
0.0000000000000000e+00 1.0000000000000000e+01
0.0000000000000000e+00 1.0000000000000000e+01
ITEM: ATOMS id type x y z vx vy vz
3 2 6.10289 4.03186 5.31325 -3.64024 7.46243 11.3273
2 1 5.55584 4.74363 4.74531 -2.44636 -7.63622 -3.14225
5 2 4.09017 5.02489 6.26348 4.98271 15.7534 23.1059
4 2 5.87489 4.98061 3.74772 -23.5105 -6.23622 -16.6172
1 1 4.4491 5.25195 5.25149 3.12335 8.44442 0.939006
6 2 3.87561 6.01492 4.71554 14.101 -26.6103 8.43799
ITEM: TIMESTEP
54700
ITEM: NUMBER OF ATOMS
6
ITEM: BOX BOUNDS pp pp pp
0.0000000000000000e+00 1.0000000000000000e+01
0.0000000000000000e+00 1.0000000000000000e+01
0.0000000000000000e+00 1.0000000000000000e+01
ITEM: ATOMS id type x y z vx vy vz
3 2 6.07693 4.0132 4.43714 -0.160631 -8.27877 -11.69
2 1 5.07706 4.38933 4.7704 -7.27617 -0.634123 0.908509
5 2 5.70741 6.31704 5.23683 -1.4178 -14.3149 -32.0493
4 2 4.22381 3.67692 4.79472 -2.71371 -9.99494 25.279
1 1 4.92793 5.6121 5.22649 8.45874 3.26856 -0.613635
6 2 3.9349 5.97539 5.57014 -9.79941 1.19643 14.9465
ITEM: TIMESTEP
54800
ITEM: NUMBER OF ATOMS
6
ITEM: BOX BOUNDS pp pp pp
0.0000000000000000e+00 1.0000000000000000e+01
0.0000000000000000e+00 1.0000000000000000e+01
0.0000000000000000e+00 1.0000000000000000e+01
ITEM: ATOMS id type x y z vx vy vz
3 2 3.79184 4.22972 4.42383 3.98316 16.5333 28.9925
2 1 4.62041 4.47255 5.08263 -6.20993 2.71314 4.69927
5 2 5.21864 6.15188 3.97847 -9.61715 9.11289 -9.01941
4 2 4.72392 3.81584 5.95571 6.38196 1.8407 -7.94767
1 1 5.38642 5.53128 4.92355 4.53195 -4.13274 -4.63909
6 2 6.18667 5.75656 5.57013 19.2471 -10.5708 -12.7424
ITEM: TIMESTEP
54900
ITEM: NUMBER OF ATOMS
6
ITEM: BOX BOUNDS pp pp pp
0.0000000000000000e+00 1.0000000000000000e+01