ITEM: TIMESTEP
49600
ITEM: NUMBER OF ATOMS
6
ITEM: BOX BOUNDS pp pp pp
0.0000000000000000e+00 1.0000000000000000e+01
0.0000000000000000e+00 1.0000000000000000e+01
0.0000000000000000e+00 1.0000000000000000e+01
ITEM: ATOMS id type x y z vx vy vz
2 1 4.90389 4.35156 4.83031 -6.25244 -1.54144 4.8906
3 2 5.12698 3.97732 3.81413 -22.7355 -19.6642 -12.453
5 2 5.35693 6.37713 4.43392 -7.40611 1.52226 -12.4056
4 2 4.61867 3.59963 5.58197 11.4801 11.5529 -12.0033
6 2 4.87754 6.03314 6.16148 20.6332 6.64669 27.651
1 1 5.09799 5.64948 5.17056 6.08697 1.53661 -4.11762
ITEM: TIMESTEP
49700
ITEM: NUMBER OF ATOMS
6
ITEM: BOX BOUNDS pp pp pp
0.0000000000000000e+00 1.0000000000000000e+01
0.0000000000000000e+00 1.0000000000000000e+01
0.0000000000000000e+00 1.0000000000000000e+01
ITEM: ATOMS id type x y z vx vy vz
2 1 4.53252 4.57966 5.24561 -4.06855 4.64355 7.37881
3 2 3.4965 4.80058 5.31443 16.4326 10.7543 11.7438
5 2 5.18266 6.45845 4.35746 7.20982 11.1559 5.06838
4 2 4.80101 3.56973 5.62801 -3.71249 -18.4331 -6.38429
6 2 6.53719 5.11992 4.71898 -6.94312 -5.98662 -18.8078
1 1 5.46623 5.42462 4.75296 2.9787 -4.43294 -6.67556
ITEM: TIMESTEP
49800
ITEM: NUMBER OF ATOMS
6
ITEM: BOX BOUNDS pp pp pp
0.0000000000000000e+00 1.0000000000000000e+01
0.0000000000000000e+00 1.0000000000000000e+01
0.0000000000000000e+00 1.0000000000000000e+01
ITEM: ATOMS id type x y z vx vy vz
2 1 4.63378 5.00308 5.57223 1.11932 4.38322 2.37837
3 2 5.10451 5.39479 6.52759 22.5862 -2.60975 7.66359
5 2 6.31423 5.45212 4.3593 -12.4967 -35.4991 -6.98835
4 2 3.68616 4.53805 5.64828 -8.52825 18.4156 5.05404
6 2 4.97613 4.63596 3.46686 -10.7862 10.903 2.30236
1 1 5.35962 4.99512 4.42775 -0.345161 -3.64554 -3.05238
ITEM: TIMESTEP
49900
ITEM: NUMBER OF ATOMS
6
ITEM: BOX BOUNDS pp pp pp
0.0000000000000000e+00 1.0000000000000000e+01
0.0000000000000000e+00 1.0000000000000000e+01
0.0000000000000000e+00 1.0000000000000000e+01
ITEM: ATOMS id type x y z vx vy vz
2 1 5.11086 5.35117 5.56543 8.00886 2.45917 -2.5591
3 2 5.41524 4.90811 6.49374 -8.49704 4.73661 10.07
5 2 4.98282 3.53922 4.40193 -15.9094 -23.6435 12.5759
4 2 4.99497 6.48377 5.58614 17.714 -8.03578 -6.83831
6 2 4.60179 5.11353 3.53006 7.70048 15.0141 -11.8708
1 1 4.88978 4.64505 4.43373 -8.09345 -1.45812 2.22872
ITEM: TIMESTEP
50000
ITEM: NUMBER OF ATOMS
6
ITEM: BOX BOUNDS pp pp pp
0.0000000000000000e+00 1.0000000000000000e+01
0.0000000000000000e+00 1.0000000000000000e+01
0.0000000000000000e+00 1.0000000000000000e+01
ITEM: ATOMS id type x y z vx vy vz
6 2 4.44413 4.0609 3.81471 -10.7729 -7.19401 16.4404
1 1 4.42908 4.73331 4.76212 -2.87783 1.29693 3.3829
4 2 6.53631 5.02744 4.86164 7.19262 -28.7823 -5.55668
5 2 3.44839 4.98494 5.16841 -0.276964 24.0186 1.63261
2 1 5.56895 5.27028 5.23874 3.29464 -0.49661 -2.12288
3 2 5.59716 5.88352 6.14679 -1.10956 2.42098 -27.5309
ITEM: TIMESTEP
50100
ITEM: NUMBER OF ATOMS
6
ITEM: BOX BOUNDS pp pp pp
0.0000000000000000e+00 1.0000000000000000e+01
0.0000000000000000e+00 1.0000000000000000e+01
0.0000000000000000e+00 1.0000000000000000e+01
ITEM: ATOMS id type x y z vx vy vz
6 2 3.86216 4.62295 5.96353 12.1011 12.2999 11.6074
1 1 4.35809 5.10342 5.17399 0.737298 8.34357 3.67382
4 2 6.25682 4.15601 5.35275 -6.48091 5.70784 10.5758
5 2 3.73158 5.8467 4.64082 14.061 -23.883 3.02201
2 1 5.64559 4.89079 4.82974 -2.28434 -7.77017 -3.2628
3 2 6.10813 5.44301 4.00025 -1.24651 -0.957399 -30.1029
ITEM: TIMESTEP
50200
ITEM: NUMBER OF ATOMS
6
ITEM: BOX BOUNDS pp pp pp
0.0000000000000000e+00 1.0000000000000000e+01
0.0000000000000000e+00 1.0000000000000000e+01
0.0000000000000000e+00 1.0000000000000000e+01
ITEM: ATOMS id type x y z vx vy vz
6 2 5.35851 6.34279 5.68239 14.9427 -3.58434 -26.7044
1 1 4.72768 5.5438 5.28939 8.2184 3.22128 0.511763
4 2 6.37544 4.27874 4.72486 -3.43242 2.65695 -15.1474
5 2 3.67358 5.72771 5.29093 -31.045 -1.3206 5.71558
2 1 5.26593 4.45775 4.71139 -6.10902 -3.17994 0.409327
3 2 4.67104 3.6319 4.29438 -5.60088 1.75532 25.1604
ITEM: TIMESTEP
50300
ITEM: NUMBER OF ATOMS
6
ITEM: BOX BOUNDS pp pp pp
0.0000000000000000e+00 1.0000000000000000e+01
0.0000000000000000e+00 1.0000000000000000e+01
0.0000000000000000e+00 1.0000000000000000e+01
ITEM: ATOMS id type x y z vx vy vz
6 2 5.27243 6.34491 4.20292 -9.31976 14.3321 -23.4854
1 1 5.2249 5.62443 5.08463 6.79759 -3.21229 -1.20336
4 2 4.42711 3.97788 3.989 -16.7919 12.9016 10.1773
5 2 5.58533 5.99661 6.06976 9.98656 -12.1301 -19.6711
2 1 4.77365 4.37441 4.91367 -7.0803 1.07269 3.29187
3 2 4.73492 3.69401 5.76036 19.4939 10.3921 8.09233
ITEM: TIMESTEP
50400
ITEM: NUMBER OF ATOMS
6
ITEM: BOX BOUNDS pp pp pp
0.0000000000000000e+00 1.0000000000000000e+01
0.0000000000000000e+00 1.0000000000000000e+01
0.0000000000000000e+00 1.0000000000000000e+01
ITEM: ATOMS id type x y z vx vy vz
6 2 5.42346 6.35485 4.39207 0.36697 -35.2724 17.5924
1 1 5.47043 5.31193 4.64839 0.436931 -2.30607 -4.70831
4 2 3.71496 5.27492 5.81458 8.40428 24.5608 21.0052
5 2 6.31301 4.7493 4.14912 -13.358 -15.6716 -18.0459
2 1 4.52639 4.68828 5.35846 0.217093 5.06877 3.38248
3 2 4.58887 3.61798 5.56443 -3.20669 -6.53744 -4.75304
ITEM: TIMESTEP
50500
ITEM: NUMBER OF ATOMS
6
ITEM: BOX BOUNDS pp pp pp
0.0000000000000000e+00 1.0000000000000000e+01
0.0000000000000000e+00 1.0000000000000000e+01
0.0000000000000000e+00 1.0000000000000000e+01
ITEM: ATOMS id type x y z vx vy vz
6 2 6.35415 4.80171 4.25987 6.34987 -16.8446 1.34692
1 1 5.25919 4.88509 4.3927 -3.55025 -6.5684 -1.47603
4 2 5.3998 5.23625 6.47358 2.9746 -16.8696 -10.1535
5 2 4.64734 4.76285 3.57918 -19.5927 18.133 14.3995
2 1 4.73669 5.11368 5.59928 3.73884 6.28078 0.944663
3 2 3.65034 5.21341 5.78476 8.02106 19.0087 0.738808
ITEM: TIMESTEP
50600
ITEM: NUMBER OF ATOMS
6
ITEM: BOX BOUNDS pp pp pp
0.0000000000000000e+00 1.0000000000000000e+01
0.0000000000000000e+00 1.0000000000000000e+01
0.0000000000000000e+00 1.0000000000000000e+01
ITEM: ATOMS id type x y z vx vy vz
6 2 4.35526 3.64742 4.71118 -30.8987 -10.6365 17.5575
1 1 4.74568 4.62342 4.51632 -4.47852 0.883498 3.57749
4 2 5.39414 4.99884 6.49991 -3.9396 -8.97627 1.47591
5 2 4.60022 5.07204 3.46749 2.22471 0.0392492 -8.89249
2 1 5.25543 5.37135 5.4881 5.50097 2.16084 -2.76917
3 2 5.63956 6.34365 5.27062 20.4299 -16.7031 -19.7729
ITEM: TIMESTEP
50700
ITEM: NUMBER OF ATOMS
6
ITEM: BOX BOUNDS pp pp pp
0.0000000000000000e+00 1.0000000000000000e+01
0.0000000000000000e+00 1.0000000000000000e+01
0.0000000000000000e+00 1.0000000000000000e+01
ITEM: ATOMS id type x y z vx vy vz
6 2 3.49502 5.4722 5.18111 27.9201 11.3812 -15.3999
1 1 4.38482 4.81484 4.86062 -4.49245 2.55804 6.13603
4 2 5.79734 6.1254 5.62776 6.10521 5.23489 -13.4337
5 2 4.13154 3.89125 4.35915 -6.8295 -4.15605 14.8309
2 1 5.62343 5.18373 5.13964 2.18859 -1.62068 -5.40492
3 2 6.48033 4.52778 4.83076 0.257229 -23.6298 5.29069
ITEM: TIMESTEP
50800
ITEM: NUMBER OF ATOMS
6
ITEM: BOX BOUNDS pp pp pp
0.0000000000000000e+00 1.0000000000000000e+01
0.0000000000000000e+00 1.0000000000000000e+01
0.0000000000000000e+00 1.0000000000000000e+01
ITEM: ATOMS id type x y z vx vy vz
6 2 3.78881 5.80289 4.63366 -6.35991 6.08206 -10.0329
1 1 4.42972 5.24112 5.24383 1.2857 4.54092 4.9568
4 2 5.83589 4.84347 3.67477 -15.5687 -24.8637 4.31225
5 2 4.20758 5.1244 6.28743 30.0238 20.9592 -11.9364
2 1 5.56624 4.76401 4.76031 -1.97991 -4.7677 -3.59661
3 2 6.21827 4.16769 5.3566 0.177094 0.524803 1.44888
ITEM: TIMESTEP
50900
ITEM: NUMBER OF ATOMS
6
ITEM: BOX BOUNDS pp pp pp
0.0000000000000000e+00 1.0000000000000000e+01
0.0000000000000000e+00 1.0000000000000000e+01
0.0000000000000000e+00 1.0000000000000000e+01
ITEM: ATOMS id type x y z vx vy vz
6 2 3.89946 5.81429 5.71435 11.1549 6.41075 10.6779
1 1 4.86247 5.59856 5.23766 4.13678 0.150536 0.494886
4 2 4.41579 3.6046 4.79764 -22.0833 -11.2901 31.751
5 2 5.62147 6.41327 5.19256 18.2364 31.4637 -24.5822
2 1 5.13479 4.39919 4.7642 -3.15426 -2.44538 -1.80614
3 2 6.09849 4.19418 4.27515 -19.0158 0.761211 -2.22172
ITEM: TIMESTEP
51000
ITEM: NUMBER OF ATOMS
6
ITEM: BOX BOUNDS pp pp pp
0.0000000000000000e+00 1.0000000000000000e+01
0.0000000000000000e+00 1.0000000000000000e+01
0.0000000000000000e+00 1.0000000000000000e+01
ITEM: ATOMS id type x y z vx vy vz
3 2 3.83717 4.21332 4.31819 -32.2893 6.42152 6.4207
1 1 5.33192 5.56308 4.97401 4.44956 1.23918 -5.17315
5 2 5.19699 6.30426 4.16701 -0.711534 -18.6041 14.9618
4 2 4.85458 3.74841 5.85702 -4.4337 7.6702 -12.815
2 1 4.66301 4.43134 5.02394 -2.82708 0.245683 6.23322
6 2 6.17412 5.8001 5.68398 18.1009 -13.1814 -21.1993
ITEM: TIMESTEP
51100
ITEM: NUMBER OF ATOMS
6
ITEM: BOX BOUNDS pp pp pp
0.0000000000000000e+00 1.0000000000000000e+01
0.0000000000000000e+00 1.0000000000000000e+01
0.0000000000000000e+00 1.0000000000000000e+01
ITEM: ATOMS id type x y z vx vy vz
3 2 4.13876 5.511 6.14052 28.6387 -10.1932 9.5751
1 1 5.4333 5.18728 4.53279 1.30131 -5.50574 -3.82129
5 2 5.75991 6.21233 4.50195 11.9677 1.26552 -2.11148
4 2 4.19565 3.76629 5.56819 -15.2995 1.19063 10.0201
2 1 4.57166 4.81308 5.46094 -1.18953 6.1239 3.53289
6 2 5.84906 4.50569 3.86594 -26.6388 0.371058 -14.0471
ITEM: TIMESTEP
51200
ITEM: NUMBER OF ATOMS
6
ITEM: BOX BOUNDS pp pp pp
0.0000000000000000e+00 1.0000000000000000e+01
0.0000000000000000e+00 1.0000000000000000e+01
0.0000000000000000e+00 1.0000000000000000e+01
ITEM: ATOMS id type x y z vx vy vz
3 2 5.5528 5.06495 6.47438 6.73718 -3.87069 2.93373
1 1 5.1475 4.78162 4.39648 -3.37501 -3.33328 1.11079
5 2 6.01332 4.15353 4.17642 -13.04 -30.4692 -13.5894
4 2 4.00051 5.81106 5.79541 16.3344 25.5124 -2.62214
2 1 4.85458 5.22167 5.60498 3.59821 3.69478 1.51096
6 2 4.41103 4.9308 3.5383 -12.6912 4.51985 -17.9632
ITEM: TIMESTEP
51300
ITEM: NUMBER OF ATOMS
6
ITEM: BOX BOUNDS pp pp pp
0.0000000000000000e+00 1.0000000000000000e+01
0.0000000000000000e+00 1.0000000000000000e+01
0.0000000000000000e+00 1.0000000000000000e+01
ITEM: ATOMS id type x y z vx vy vz
3 2 5.36535 5.24123 6.46401 8.98959 11.704 9.33388
1 1 4.5971 4.66307 4.60159 -4.9951 -1.31244 0.769226
5 2 3.84716 3.90457 4.99852 -9.69354 32.0316 3.51169
4 2 6.12954 6.08378 4.97215 17.8304 -23.7005 3.71009
2 1 5.40556 5.34053 5.40209 4.49361 0.821577 -4.00354
6 2 4.62869 4.72715 3.52334 -11.1506 -14.1859 21.9847
ITEM: TIMESTEP
51400
ITEM: NUMBER OF ATOMS
6
ITEM: BOX BOUNDS pp pp pp
0.0000000000000000e+00 1.0000000000000000e+01
0.0000000000000000e+00 1.0000000000000000e+01
0.0000000000000000e+00 1.0000000000000000e+01
ITEM: ATOMS id type x y z vx vy vz
3 2 6.11408 6.08809 5.01735 13.981 -22.3253 -28.2419
1 1 4.33563 4.91593 4.97411 -1.34789 2.15782 3.68981
5 2 3.69618 5.71579 5.00789 -3.96738 12.56 -6.35834
4 2 6.37814 4.27324 4.97612 9.60685 -17.2509 3.66356
2 1 5.65761 5.08407 5.02696 0.543209 -0.74665 -3.25665
6 2 3.89466 3.92247 4.98773 -10.0318 10.2006 25.7751
ITEM: TIMESTEP
51500
ITEM: NUMBER OF ATOMS
6
ITEM: BOX BOUNDS pp pp pp
0.0000000000000000e+00 1.0000000000000000e+01
0.0000000000000000e+00 1.0000000000000000e+01
0.0000000000000000e+00 1.0000000000000000e+01
ITEM: ATOMS id type x y z vx vy vz
3 2 5.43627 4.33905 3.63782 -21.5112 -25.5649 -1.74046
1 1 4.53953 5.38501 5.28559 2.92135 2.31779 -1.81048
5 2 3.61952 5.794 4.74574 -6.59359 10.368 11.7669
4 2 6.33144 4.25266 5.2636 -6.97894 0.774417 -15.4406
2 1 5.46186 4.61218 4.71459 -1.33977 -4.00255 0.195771
6 2 4.59876 5.64733 6.3525 16.2374 34.4981 24.6551
ITEM: TIMESTEP
51600
ITEM: NUMBER OF ATOMS
6
ITEM: BOX BOUNDS pp pp pp
0.0000000000000000e+00 1.0000000000000000e+01
0.0000000000000000e+00 1.0000000000000000e+01
0.0000000000000000e+00 1.0000000000000000e+01
ITEM: ATOMS id type x y z vx vy vz
3 2 4.3684 3.62925 5.26865 5.1996 2.76389 12.7352
1 1 4.99463 5.63834 5.18648 5.39685 3.34369 -3.26039
5 2 4.40424 5.98471 6.05248 23.523 8.61303 14.3528
4 2 5.58153 4.01563 3.94698 -27.4098 -12.9577 -9.05516
2 1 5.00644 4.35361 4.81401 -3.94361 -1.16736 1.70763
6 2 5.63553 6.46593 4.72791 -18.6297 -24.3525 0.469997
ITEM: TIMESTEP
51700
ITEM: NUMBER OF ATOMS
6
ITEM: BOX BOUNDS pp pp pp
0.0000000000000000e+00 1.0000000000000000e+01
0.0000000000000000e+00 1.0000000000000000e+01
0.0000000000000000e+00 1.0000000000000000e+01
ITEM: ATOMS id type x y z vx vy vz
3 2 4.83081 3.6325 5.76568 -10.2487 -8.18312 4.30971
1 1 5.4395 5.48603 4.83198 4.30351 -2.90501 -2.33408
5 2 6.43483 5.49384 5.18289 -17.4043 -17.0283 -34.9851
4 2 3.52204 4.50326 4.82222 -19.8458 19.1977 22.5074
2 1 4.56588 4.51763 5.16686 -0.227387 2.40021 3.84693
6 2 5.15065 6.32633 4.24487 -1.07266 12.029 -9.85925
ITEM: TIMESTEP
51800
ITEM: NUMBER OF ATOMS
6
ITEM: BOX BOUNDS pp pp pp
0.0000000000000000e+00 1.0000000000000000e+01
0.0000000000000000e+00 1.0000000000000000e+01
0.0000000000000000e+00 1.0000000000000000e+01
ITEM: ATOMS id type x y z vx vy vz
3 2 3.82863 4.13827 5.61933 -5.30019 23.7843 -3.24198
1 1 5.38221 5.08151 4.45362 -3.32666 -1.22235 0.0434059
5 2 5.36516 4.38168 3.57606 -15.6208 -22.5217 -30.7326
4 2 4.65263 5.6035 6.40903 20.5586 -4.68555 -0.789091
2 1 4.61946 4.92218 5.54664 1.79578 3.34876 3.54013
6 2 6.13612 5.83217 4.39433 18.6044 -21.9156 -7.93805
ITEM: TIMESTEP
51900
ITEM: NUMBER OF ATOMS
6
ITEM: BOX BOUNDS pp pp pp
0.0000000000000000e+00 1.0000000000000000e+01
0.0000000000000000e+00 1.0000000000000000e+01
0.0000000000000000e+00 1.0000000000000000e+01
ITEM: ATOMS id type x y z vx vy vz
3 2 4.48752 6.2392 5.73667 24.9672 21.0459 -5.56727
1 1 4.9835 4.68129 4.41635 -4.95538 -1.489 -0.278076
5 2 4.48239 5.07875 3.53455 2.72693 -0.92782 11.2332
4 2 5.52038 4.93885 6.45898 -1.38534 3.01811 -9.10883
2 1 5.01292 5.32307 5.59201 4.74639 0.988012 -0.293997
6 2 5.55482 3.69083 4.1721 -23.8185 -17.1663 10.2597
ITEM: TIMESTEP
52000
ITEM: NUMBER OF ATOMS
6
ITEM: BOX BOUNDS pp pp pp
0.0000000000000000e+00 1.0000000000000000e+01
0.0000000000000000e+00 1.0000000000000000e+01
0.0000000000000000e+00 1.0000000000000000e+01
ITEM: ATOMS id type x y z vx vy vz
1 1 4.47632 4.71233 4.69328 -4.87237 2.3871 1.88219
5 2 4.50965 4.36361 3.63979 -0.46239 -9.16299 25.86
3 2 6.45891 5.55419 4.8179 6.2659 -19.5363 -6.93611
6 2 3.61328 4.45447 5.22316 8.11921 25.3859 5.84941
4 2 5.48675 5.62551 6.36445 1.99004 24.9323 10.5654
2 1 5.51813 5.28782 5.30307 3.53697 -4.20136 -4.84781
ITEM: TIMESTEP
52100
ITEM: NUMBER OF ATOMS
6
ITEM: BOX BOUNDS pp pp pp
0.0000000000000000e+00 1.0000000000000000e+01
0.0000000000000000e+00 1.0000000000000000e+01
0.0000000000000000e+00 1.0000000000000000e+01
ITEM: ATOMS id type x y z vx vy vz
1 1 4.34314 5.03006 5.10683 3.0663 4.90935 1.29995
5 2 3.79003 4.22845 5.53714 -12.2206 -1.80015 40.7146
3 2 6.29046 4.09255 5.23276 -15.2797 -8.51836 8.05403
6 2 3.71926 5.87575 4.79151 0.842726 5.2426 -0.615154
4 2 6.23036 5.78048 4.4515 -14.1751 -25.1055 -19.4629
2 1 5.65454 4.97181 4.89224 0.360379 -2.37652 -3.70766
ITEM: TIMESTEP
52200
ITEM: NUMBER OF ATOMS
6
ITEM: BOX BOUNDS pp pp pp
0.0000000000000000e+00 1.0000000000000000e+01
0.0000000000000000e+00 1.0000000000000000e+01
0.0000000000000000e+00 1.0000000000000000e+01
ITEM: ATOMS id type x y z vx vy vz
1 1 4.66586 5.49134 5.27979 6.17765 4.13881 -1.01872
5 2 5.0575 6.09474 6.15 19.4195 2.37908 -20.4718
3 2 6.32476 4.28655 4.9801 -0.307326 0.623176 -19.7786
6 2 3.6109 5.76771 5.03249 -10.91 -8.46846 6.10024
4 2 4.91439 3.92624 3.87311 -16.1335 -1.6708 15.7935
2 1 5.3421 4.50231 4.71737 -5.51206 -3.53987 2.55922
ITEM: TIMESTEP
52300
ITEM: NUMBER OF ATOMS
6
ITEM: BOX BOUNDS pp pp pp
0.0000000000000000e+00 1.0000000000000000e+01
0.0000000000000000e+00 1.0000000000000000e+01
0.0000000000000000e+00 1.0000000000000000e+01
ITEM: ATOMS id type x y z vx vy vz
1 1 5.14363 5.6358 5.12569 2.95325 -0.769634 -2.02066
5 2 5.46175 6.32077 4.35307 -3.23112 -13.7158 -12.6082
3 2 4.98035 3.87633 3.87859 -29.1953 6.27102 3.59312
6 2 5.01608 6.02505 6.11636 32.5261 -13.7563 -14.0351
4 2 4.5661 3.66277 5.62624 -2.88642 -12.104 27.2304
2 1 4.85454 4.37382 4.87662 -2.71939 3.56461 1.66985
ITEM: TIMESTEP
52400
ITEM: NUMBER OF ATOMS
6
ITEM: BOX BOUNDS pp pp pp
0.0000000000000000e+00 1.0000000000000000e+01
0.0000000000000000e+00 1.0000000000000000e+01
0.0000000000000000e+00 1.0000000000000000e+01
ITEM: ATOMS id type x y z vx vy vz
1 1 5.46267 5.36379 4.7088 -3.99502 -6.86291 -3.81753
5 2 5.24452 6.35836 4.32131 12.2393 10.9239 4.75981
3 2 3.48621 4.97154 5.33973 -7.18886 29.1616 8.70076
6 2 6.51857 5.06861 4.62401 8.77414 -17.0325 -21.0083
4 2 4.73906 3.60551 5.67344 -1.89801 23.5253 -17.7125
2 1 4.53851 4.63584 5.29484 2.99414 2.95405 5.93736
ITEM: TIMESTEP
52500
ITEM: NUMBER OF ATOMS
6
ITEM: BOX BOUNDS pp pp pp
0.0000000000000000e+00 1.0000000000000000e+01
0.0000000000000000e+00 1.0000000000000000e+01
0.0000000000000000e+00 1.0000000000000000e+01
ITEM: ATOMS id type x y z vx vy vz
1 1 5.30683 4.95236 4.4251 -4.95865 -3.44005 -0.585459
5 2 6.33636 5.32206 4.25428 -3.20697 -28.4471 7.00785
3 2 5.17727 5.43855 6.43854 -4.51798 -9.64105 -15.7558
6 2 4.83169 4.54846 3.51022 -16.2272 9.89082 15.3628
4 2 3.67373 4.64365 5.69883 -18.3855 22.7134 3.36535
2 1 4.69178 5.05157 5.58329 8.51163 3.90026 -0.252078
ITEM: TIMESTEP
52600
ITEM: NUMBER OF ATOMS
6
ITEM: BOX BOUNDS pp pp pp
0.0000000000000000e+00 1.0000000000000000e+01
0.0000000000000000e+00 1.0000000000000000e+01
0.0000000000000000e+00 1.0000000000000000e+01
ITEM: ATOMS id type x y z vx vy vz
1 1 4.82447 4.6306 4.47379 -6.14845 0.69566 5.7254
5 2 4.88466 3.57132 4.50503 -19.1983 4.06304 15.3794
3 2 5.48263 4.89305 6.50343 -3.6609 -4.59513 11.5516
6 2 4.55998 5.1314 3.57165 4.67303 -0.282455 -9.66154
4 2 5.10991 6.42412 5.55212 21.486 3.13373 -6.88088
2 1 5.17262 5.36769 5.51527 5.87153 -0.890286 -6.59721
ITEM: TIMESTEP
52700
ITEM: NUMBER OF ATOMS
6
ITEM: BOX BOUNDS pp pp pp
0.0000000000000000e+00 1.0000000000000000e+01
0.0000000000000000e+00 1.0000000000000000e+01
0.0000000000000000e+00 1.0000000000000000e+01
ITEM: ATOMS id type x y z vx vy vz
1 1 4.41459 4.76843 4.8061 1.49034 5.39334 4.60293
5 2 3.45996 5.1339 5.28386 -18.7312 16.6175 0.0650956
3 2 5.6504 5.89811 6.02984 1.92443 13.1855 -22.3961
6 2 4.30906 4.09324 3.94238 -10.4377 -13.3671 18.127
4 2 6.54739 4.88457 4.69181 -17.0986 -12.2607 1.94376
2 1 5.5884 5.23071 5.19843 2.23094 -5.74373 -4.41324
ITEM: TIMESTEP
52800
ITEM: NUMBER OF ATOMS
6
ITEM: BOX BOUNDS pp pp pp
0.0000000000000000e+00 1.0000000000000000e+01
0.0000000000000000e+00 1.0000000000000000e+01
0.0000000000000000e+00 1.0000000000000000e+01
ITEM: ATOMS id type x y z vx vy vz
1 1 4.39409 5.16787 5.20489 2.65163 6.51387 3.54928
5 2 3.79063 5.86825 4.65644 12.0729 -18.2134 4.44207
3 2 6.07598 5.32319 3.9483 -9.45996 -28.8625 -1.08114
6 2 3.91936 4.66879 6.08983 11.952 20.6425 1.66825
4 2 6.14661 4.13151 5.36202 15.11 -3.27742 8.3774
2 1 5.61177 4.83279 4.79052 -5.14195 -4.02054 -4.67436
ITEM: TIMESTEP
52900
ITEM: NUMBER OF ATOMS
6
ITEM: BOX BOUNDS pp pp pp
0.0000000000000000e+00 1.0000000000000000e+01
0.0000000000000000e+00 1.0000000000000000e+01
0.0000000000000000e+00 1.0000000000000000e+01
ITEM: ATOMS id type x y z vx vy vz
1 1 4.7921 5.57418 5.27736 5.09846 2.05958 -3.14493
5 2 3.71195 5.76306 5.3201 7.37821 -0.331308 18.3439
3 2 4.47746 3.6586 4.39553 -23.7811 -25.1054 9.18775
6 2 5.4794 6.29818 5.56089 13.8173 12.6242 -10.2704
4 2 6.28697 4.18622 4.64768 -7.03709 -4.00233 -21.4818
2 1 5.21181 4.43367 4.72916 -4.29092 -0.648472 3.49912
ITEM: TIMESTEP
53000
ITEM: NUMBER OF ATOMS
6
ITEM: BOX BOUNDS pp pp pp
0.0000000000000000e+00 1.0000000000000000e+01
0.0000000000000000e+00 1.0000000000000000e+01
0.0000000000000000e+00 1.0000000000000000e+01
ITEM: ATOMS id type x y z vx vy vz
4 2 4.29824 4.02284 4.00032 -16.6835 10.234 17.542
2 1 4.71941 4.39731 4.96806 -6.39069 -0.111124 5.25534
6 2 5.26403 6.27499 4.13145 -6.64628 0.8065 5.46802
3 2 4.74095 3.72789 5.84241 8.81329 10.8164 -19.3076
1 1 5.28118 5.6019 5.0363 5.15087 -2.96926 -6.21054
5 2 5.69224 5.98329 5.97563 29.2903 14.8493 7.67985
ITEM: TIMESTEP
53100
ITEM: NUMBER OF ATOMS
6
ITEM: BOX BOUNDS pp pp pp
0.0000000000000000e+00 1.0000000000000000e+01
0.0000000000000000e+00 1.0000000000000000e+01
0.0000000000000000e+00 1.0000000000000000e+01
ITEM: ATOMS id type x y z vx vy vz
4 2 3.84347 5.37847 5.87219 11.3989 7.05598 19.1706
2 1 4.52587 4.74183 5.40315 0.486172 4.33993 5.48261
6 2 5.46977 6.33511 4.35767 18.7533 10.2644 -0.17829
3 2 4.54757 3.7021 5.63064 -16.997 -4.51181 -1.54264
1 1 5.46778 5.25459 4.601 0.873077 -5.66103 -7.08483
5 2 6.21734 4.62657 4.09189 -29.3521 2.93378 1.64248
ITEM: TIMESTEP
53200
ITEM: NUMBER OF ATOMS
6
ITEM: BOX BOUNDS pp pp pp
0.0000000000000000e+00 1.0000000000000000e+01
0.0000000000000000e+00 1.0000000000000000e+01
0.0000000000000000e+00 1.0000000000000000e+01
ITEM: ATOMS id type x y z vx vy vz
4 2 5.47946 5.23476 6.49739 11.3803 -11.2316 20.1878
2 1 4.79305 5.16581 5.6084 4.44897 5.91919 0.670858
6 2 6.23781 4.69608 4.18305 -19.9474 -17.066 2.0108
3 2 3.71009 5.33515 5.81164 -5.18573 23.3971 12.1708
1 1 5.21464 4.82968 4.38793 -2.16314 -6.53039 -2.53326
5 2 4.48353 4.78735 3.55351 -13.4853 12.1836 -12.1768
ITEM: TIMESTEP
53300
ITEM: NUMBER OF ATOMS
6
ITEM: BOX BOUNDS pp pp pp
0.0000000000000000e+00 1.0000000000000000e+01
0.0000000000000000e+00 1.0000000000000000e+01
0.0000000000000000e+00 1.0000000000000000e+01
ITEM: ATOMS id type x y z vx vy vz
4 2 5.45032 5.00475 6.47654 -10.915 14.3347 -18.4525
2 1 5.31597 5.37622 5.45013 9.27634 1.38301 1.23103
6 2 4.20769 3.64248 4.82985 -21.3422 2.58491 6.37163
3 2 5.82303 6.33325 5.22193 11.3046 -19.0751 -11.3304
1 1 4.68295 4.62771 4.54282 -7.33098 0.140831 1.69929
5 2 4.53425 4.9722 3.55758 -2.22849 -16.0027 -11.5065
ITEM: TIMESTEP
53400
ITEM: NUMBER OF ATOMS
6
ITEM: BOX BOUNDS pp pp pp
0.0000000000000000e+00 1.0000000000000000e+01
0.0000000000000000e+00 1.0000000000000000e+01
0.0000000000000000e+00 1.0000000000000000e+01
ITEM: ATOMS id type x y z vx vy vz
4 2 5.96172 6.07987 5.51542 17.4471 10.4702 -9.75015
2 1 5.65163 5.145 5.08406 4.19601 -3.22531 -6.23089
6 2 3.55079 5.52892 5.13557 -10.981 21.3711 -12.4049
3 2 6.38391 4.4369 4.84389 0.585221 -16.7435 12.6874
1 1 4.35792 4.85905 4.9206 -4.55118 1.37459 5.05294
5 2 3.99216 3.90565 4.45138 -2.81912 6.95547 23.5042
ITEM: TIMESTEP
53500
ITEM: NUMBER OF ATOMS
6
ITEM: BOX BOUNDS pp pp pp
0.0000000000000000e+00 1.0000000000000000e+01
0.0000000000000000e+00 1.0000000000000000e+01
0.0000000000000000e+00 1.0000000000000000e+01
ITEM: ATOMS id type x y z vx vy vz
4 2 5.75321 4.66233 3.65887 -6.62502 -19.38 -9.95453
2 1 5.52648 4.71026 4.72756 -2.71363 -6.99939 -3.03214
6 2 3.7741 5.88161 4.65893 9.45772 -16.2294 1.93549
3 2 6.28064 4.09068 5.33527 14.9564 -0.620655 -4.72167
1 1 4.46626 5.29514 5.27249 0.154514 8.5188 2.334
5 2 4.28098 5.30056 6.34817 12.7056 18.1246 21.0598
ITEM: TIMESTEP
53600
ITEM: NUMBER OF ATOMS
6
ITEM: BOX BOUNDS pp pp pp
0.0000000000000000e+00 1.0000000000000000e+01
0.0000000000000000e+00 1.0000000000000000e+01
0.0000000000000000e+00 1.0000000000000000e+01
ITEM: ATOMS id type x y z vx vy vz
4 2 4.3461 3.56936 4.97118 13.4048 17.0857 22.6984
2 1 5.08243 4.38445 4.76845 -6.5834 -5.94826 -0.726484
6 2 4.01389 5.9532 5.77802 12.7422 17.753 15.6379
3 2 5.93238 4.02227 4.25215 -13.0543 3.39452 -5.07141
1 1 4.92315 5.62001 5.22705 6.53426 2.58758 -0.460932
5 2 5.64356 6.40154 5.05418 -12.5072 1.81282 -19.1156
ITEM: TIMESTEP
53700
ITEM: NUMBER OF ATOMS
6
ITEM: BOX BOUNDS pp pp pp
0.0000000000000000e+00 1.0000000000000000e+01
0.0000000000000000e+00 1.0000000000000000e+01
0.0000000000000000e+00 1.0000000000000000e+01
ITEM: ATOMS id type x y z vx vy vz
4 2 4.78807 3.73914 5.85474 8.62526 -24.5306 21.2587
2 1 4.62112 4.45511 5.0778 -5.93574 5.02351 2.67527
6 2 6.27085 5.77186 5.47232 16.1696 -10.0696 -16.4316
3 2 3.73564 4.29561 4.474 -8.97853 5.91267 18.8176
1 1 5.37774 5.53582 4.92718 5.52208 -2.74115 -5.20969
5 2 5.22144 6.30101 4.14146 -10.8872 1.49076 6.55575
ITEM: TIMESTEP
53800
ITEM: NUMBER OF ATOMS
6
ITEM: BOX BOUNDS pp pp pp
0.0000000000000000e+00 1.0000000000000000e+01
0.0000000000000000e+00 1.0000000000000000e+01
0.0000000000000000e+00 1.0000000000000000e+01
ITEM: ATOMS id type x y z vx vy vz
4 2 4.13026 3.85597 5.68303 -6.25292 26.376 3.31217
2 1 4.57857 4.85908 5.48473 1.20705 2.36891 0.489497
6 2 5.67004 4.39459 3.74913 -31.3855 -3.26635 -6.12084
3 2 4.27502 5.59043 6.31733 16.8629 9.49926 26.4076
1 1 5.42533 5.14386 4.50635 -0.488631 -5.0007 -2.15241
5 2 5.88069 6.12352 4.35864 12.2148 -1.24826 -3.78354
ITEM: TIMESTEP
53900
ITEM: NUMBER OF ATOMS
6
ITEM: BOX BOUNDS pp pp pp
0.0000000000000000e+00 1.0000000000000000e+01
0.0000000000000000e+00 1.0000000000000000e+01
0.0000000000000000e+00 1.0000000000000000e+01
ITEM: ATOMS id type x y z vx vy vz
4 2 4.12369 5.99436 5.85025 18.7387 11.1672 -6.53327
2 1 4.91697 5.25581 5.60911 6.54824 5.03856 0.687416
6 2 4.40393 4.94422 3.54126 4.3507 5.91281 -3.99948
3 2 5.57033 5.08237 6.4284 -15.2134 -14.5593 -32.2635
1 1 5.08757 4.74181 4.39188 -5.67662 -3.86943 3.17091
5 2 5.85044 4.00694 4.17018 -18.2622 -16.4523 -3.17992
ITEM: TIMESTEP
54000
ITEM: NUMBER OF ATOMS
6
ITEM: BOX BOUNDS pp pp pp
0.0000000000000000e+00 1.0000000000000000e+01
0.0000000000000000e+00 1.0000000000000000e+01
0.0000000000000000e+00 1.0000000000000000e+01
ITEM: ATOMS id type x y z vx vy vz
6 2 4.50382 4.65686 3.55297 -1.62065 -3.79145 -3.94231
1 1 4.55362 4.66511 4.63882 -2.41999 0.778598 5.02006
4 2 6.22682 5.8724 4.91786 25.986 -19.4649 -21.2072
5 2 3.7116 4.10205 5.08817 -6.24049 31.8734 8.62589
2 1 5.45543 5.33999 5.35985 0.404493 -2.38743 -4.7147
3 2 5.45229 5.30744 6.45873 5.89195 10.554 12.8849
ITEM: TIMESTEP
54100
ITEM: NUMBER OF ATOMS
6
ITEM: BOX BOUNDS pp pp pp
0.0000000000000000e+00 1.0000000000000000e+01
0.0000000000000000e+00 1.0000000000000000e+01
0.0000000000000000e+00 1.0000000000000000e+01
ITEM: ATOMS id type x y z vx vy vz
6 2 3.84182 4.00988 5.1853 9.58612 20.8053 16.4679
1 1 4.33058 4.95566 5.01859 1.55457 2.20578 5.48851
4 2 6.34728 4.10917 5.00342 -3.69684 -8.32786 14.1191
5 2 3.683 5.84374 4.99338 5.7948 18.1392 -10.1477
2 1 5.6614 5.04849 4.9808 -3.19911 -4.91529 -5.21657
3 2 6.22586 5.98735 4.82698 7.91241 1.67002 -23.6796
ITEM: TIMESTEP
54200
ITEM: NUMBER OF ATOMS
6
ITEM: BOX BOUNDS pp pp pp
0.0000000000000000e+00 1.0000000000000000e+01
0.0000000000000000e+00 1.0000000000000000e+01
0.0000000000000000e+00 1.0000000000000000e+01
ITEM: ATOMS id type x y z vx vy vz
6 2 4.75837 5.84732 6.31798 21.8047 23.3724 -1.29405
1 1 4.57824 5.42509 5.29872 5.11019 1.02868 -0.564453
4 2 6.30407 4.19278 5.17768 -14.8473 8.41251 -4.68933
5 2 3.72935 5.79793 4.79451 2.91471 0.775928 3.71778
2 1 5.42025 4.57324 4.70366 -3.79331 -3.22293 -2.4799
3 2 5.22869 4.18145 3.68331 -25.5642 -6.41396 38.5424
ITEM: TIMESTEP
54300
ITEM: NUMBER OF ATOMS
6
ITEM: BOX BOUNDS pp pp pp
0.0000000000000000e+00 1.0000000000000000e+01
0.0000000000000000e+00 1.0000000000000000e+01
0.0000000000000000e+00 1.0000000000000000e+01
ITEM: ATOMS id type x y z vx vy vz
6 2 5.64501 6.32615 4.58519 -0.0711069 -3.41545 -28.5638
1 1 5.04576 5.64336 5.16183 5.0775 -1.68387 -1.17768
4 2 5.37817 3.97347 3.92971 -18.9331 2.57588 -11.0753
5 2 4.60096 6.08808 6.11488 18.7291 -2.9166 0.665957
2 1 4.95497 4.34937 4.83375 -4.66432 2.80021 1.88156
3 2 4.36964 3.69848 5.42475 -4.64836 -9.54622 30.5856
ITEM: TIMESTEP
54400
ITEM: NUMBER OF ATOMS
6
ITEM: BOX BOUNDS pp pp pp
0.0000000000000000e+00 1.0000000000000000e+01
0.0000000000000000e+00 1.0000000000000000e+01
0.0000000000000000e+00 1.0000000000000000e+01
ITEM: ATOMS id type x y z vx vy vz
6 2 5.14073 6.32289 4.18717 2.11571 -26.0243 13.7606
1 1 5.45475 5.44216 4.79277 0.579401 -1.9596 -4.03419
4 2 3.4466 4.69414 5.01039 -15.2164 19.0095 26.2545
5 2 6.50144 5.31219 4.99445 7.85221 -26.6604 -19.8786
2 1 4.55227 4.55936 5.20576 -0.545549 4.38175 2.24173
3 2 4.83004 3.65221 5.82732 4.84512 4.81272 1.2226
ITEM: TIMESTEP
54500
ITEM: NUMBER OF ATOMS
6
ITEM: BOX BOUNDS pp pp pp
0.0000000000000000e+00 1.0000000000000000e+01
0.0000000000000000e+00 1.0000000000000000e+01
0.0000000000000000e+00 1.0000000000000000e+01
ITEM: ATOMS id type x y z vx vy vz
6 2 6.2059 5.6846 4.32191 26.8181 -2.80056 -6.47229
1 1 5.35327 5.03667 4.43606 -4.06105 -6.36172 -1.49591
4 2 4.85647 5.63372 6.39818 24.5708 -16.1654 -20.7
5 2 5.12093 4.35943 3.64515 -20.3523 14.4379 6.86362
2 1 4.6498 4.9627 5.56308 1.19373 4.7543 3.45986
3 2 3.78253 4.32938 5.64692 3.13066 23.6823 -3.09397
ITEM: TIMESTEP
54600
ITEM: NUMBER OF ATOMS
6
ITEM: BOX BOUNDS pp pp pp
0.0000000000000000e+00 1.0000000000000000e+01
0.0000000000000000e+00 1.0000000000000000e+01
0.0000000000000000e+00 1.0000000000000000e+01
ITEM: ATOMS id type x y z vx vy vz
6 2 5.3042 3.64453 4.34648 -29.9153 -7.75613 14.5607
1 1 4.93247 4.66564 4.43864 -2.98799 -2.85902 2.75738
4 2 5.58061 4.88045 6.39289 15.5088 -15.0951 12.8289
5 2 4.40256 5.08602 3.5188 -13.4334 12.3295 -12.0098
2 1 5.06704 5.33739 5.56949 3.03654 2.38373 -3.16717
3 2 4.72086 6.3525 5.64676 27.2613 16.1854 -10.4967
ITEM: TIMESTEP
54700
ITEM: NUMBER OF ATOMS
6
ITEM: BOX BOUNDS pp pp pp
0.0000000000000000e+00 1.0000000000000000e+01
0.0000000000000000e+00 1.0000000000000000e+01
0.0000000000000000e+00 1.0000000000000000e+01
ITEM: ATOMS id type x y z vx vy vz
6 2 3.51104 4.6647 5.35277 7.23043 27.2986 0.381032
1 1 4.45221 4.74204 4.73466 -4.46863 0.650862 1.71393
4 2 5.55689 5.72751 6.27124 13.414 5.13652 -19.2368
5 2 4.48283 4.30744 3.75793 -2.1138 -3.12985 28.853
2 1 5.54402 5.25477 5.26231 1.9908 -0.955804 -1.73323
3 2 6.49661 5.33796 4.656 10.9953 -25.6715 -9.76724
ITEM: TIMESTEP
54800
ITEM: NUMBER OF ATOMS
6
ITEM: BOX BOUNDS pp pp pp
0.0000000000000000e+00 1.0000000000000000e+01
0.0000000000000000e+00 1.0000000000000000e+01
0.0000000000000000e+00 1.0000000000000000e+01
ITEM: ATOMS id type x y z vx vy vz
6 2 3.83216 5.91273 4.79915 -5.45045 12.2512 -3.58546
1 1 4.35749 5.08229 5.13323 1.42551 3.16851 2.4106
4 2 6.17299 5.63116 4.22479 -13.4216 -14.903 -24.1315
5 2 3.83902 4.3633 5.76812 -1.22643 23.7798 27.5945
2 1 5.63985 4.91795 4.86616 1.59857 -5.80857 -2.04698
3 2 6.19004 4.08959 5.21705 -15.9367 10.3312 -4.2105
ITEM: TIMESTEP
54900
ITEM: NUMBER OF ATOMS
6
ITEM: BOX BOUNDS pp pp pp
0.0000000000000000e+00 1.0000000000000000e+01
0.0000000000000000e+00 1.0000000000000000e+01