ITEM: TIMESTEP
49600
ITEM: NUMBER OF ATOMS
6
ITEM: BOX BOUNDS pp pp pp
0.0000000000000000e+00 1.0000000000000000e+01
0.0000000000000000e+00 1.0000000000000000e+01
0.0000000000000000e+00 1.0000000000000000e+01
ITEM: ATOMS id type x y z vx vy vz
6 2 4.55514 4.46827 3.6 -13.0098 1.96513 -4.40192
1 1 5.21334 4.85455 4.38536 -2.2465 -0.803254 1.31567
5 2 6.24014 5.03863 4.09825 14.6857 -16.9251 -9.75391
4 2 3.75646 4.97506 5.891 -17.3162 12.9344 4.79282
2 1 4.78899 5.14309 5.61514 2.14825 0.804232 -0.473502
3 2 5.42299 5.5458 6.40659 16.811 2.01394 -0.67231
ITEM: TIMESTEP
49700
ITEM: NUMBER OF ATOMS
6
ITEM: BOX BOUNDS pp pp pp
0.0000000000000000e+00 1.0000000000000000e+01
0.0000000000000000e+00 1.0000000000000000e+01
0.0000000000000000e+00 1.0000000000000000e+01
ITEM: ATOMS id type x y z vx vy vz
6 2 4.2716 4.97803 3.6067 5.53128 0.375939 -2.67695
1 1 4.94775 4.67148 4.42657 -4.31809 -1.00638 0.42524
5 2 5.59056 3.79554 4.18013 -16.8253 4.36921 12.3997
4 2 4.4037 6.20269 5.81718 16.4729 -3.16432 -11.8333
2 1 5.05036 5.33063 5.5762 4.0118 0.694455 -0.409332
3 2 5.75917 4.99824 6.36477 -1.52911 2.13615 1.92092
ITEM: TIMESTEP
49800
ITEM: NUMBER OF ATOMS
6
ITEM: BOX BOUNDS pp pp pp
0.0000000000000000e+00 1.0000000000000000e+01
0.0000000000000000e+00 1.0000000000000000e+01
0.0000000000000000e+00 1.0000000000000000e+01
ITEM: ATOMS id type x y z vx vy vz
6 2 4.3991 5.00033 3.61256 10.6685 0.0327868 4.11061
1 1 4.63724 4.62514 4.57959 -3.7619 0.900075 2.97636
5 2 4.26555 3.65028 4.82319 -10.8144 -3.25645 7.02655
4 2 5.71719 6.36029 5.18937 13.234 -0.67642 -3.08201
2 1 5.36305 5.37298 5.41954 3.00159 -1.02661 -3.37224
3 2 5.61714 5.01105 6.38715 -4.02799 5.4079 -3.33784
ITEM: TIMESTEP
49900
ITEM: NUMBER OF ATOMS
6
ITEM: BOX BOUNDS pp pp pp
0.0000000000000000e+00 1.0000000000000000e+01
0.0000000000000000e+00 1.0000000000000000e+01
0.0000000000000000e+00 1.0000000000000000e+01
ITEM: ATOMS id type x y z vx vy vz
6 2 4.2575 4.41746 3.71749 -6.34404 -9.92708 -2.16488
1 1 4.424 4.74819 4.77908 -0.237453 2.7649 3.17007
5 2 3.5536 4.72039 5.45362 -5.531 10.654 3.83959
4 2 6.45027 5.31232 4.55363 6.35549 -13.0819 -5.8481
2 1 5.57499 5.24897 5.22115 0.790903 -2.51847 -3.0081
3 2 5.75317 5.5833 6.27433 -1.0754 9.41843 2.2434
ITEM: TIMESTEP
50000
ITEM: NUMBER OF ATOMS
6
ITEM: BOX BOUNDS pp pp pp
0.0000000000000000e+00 1.0000000000000000e+01
0.0000000000000000e+00 1.0000000000000000e+01
0.0000000000000000e+00 1.0000000000000000e+01
ITEM: ATOMS id type x y z vx vy vz
6 2 3.85212 4.02504 4.72155 -2.95891 13.6078 11.0654
1 1 4.33625 4.9422 5.00073 -0.337059 0.481158 3.18463
5 2 3.66429 5.77586 5.24049 14.921 -2.2021 -11.5083
4 2 6.31816 4.21981 4.73616 -17.2732 -1.2712 11.0288
2 1 5.66714 5.05687 5.00143 0.487021 -0.406564 -2.81108
3 2 6.12747 5.98999 5.27793 3.52419 -11.0234 -15.0372
ITEM: TIMESTEP
50100
ITEM: NUMBER OF ATOMS
6
ITEM: BOX BOUNDS pp pp pp
0.0000000000000000e+00 1.0000000000000000e+01
0.0000000000000000e+00 1.0000000000000000e+01
0.0000000000000000e+00 1.0000000000000000e+01
ITEM: ATOMS id type x y z vx vy vz
6 2 3.88403 4.6362 6.00121 7.77634 -0.270562 10.6416
4 2 6.10477 3.94131 5.19339 14.2619 -10.1577 6.11989
2 1 5.61089 4.81781 4.79623 -3.84523 -3.07785 -0.446369
1 1 4.38865 5.18291 5.20314 3.15231 3.2666 1.26843
5 2 3.89113 6.05693 4.81486 -8.11989 13.9588 -11.1775
3 2 6.12809 5.35666 3.99995 -5.66152 -5.77957 -15.3797
ITEM: TIMESTEP
50200
ITEM: NUMBER OF ATOMS
6
ITEM: BOX BOUNDS pp pp pp
0.0000000000000000e+00 1.0000000000000000e+01
0.0000000000000000e+00 1.0000000000000000e+01
0.0000000000000000e+00 1.0000000000000000e+01
ITEM: ATOMS id type x y z vx vy vz
6 2 4.75199 5.74212 6.37355 10.0882 11.5695 -4.24509
4 2 6.21752 4.05005 5.23447 -11.3063 7.29089 -4.0394
2 1 5.38783 4.55687 4.69136 -1.77371 -1.68881 -0.838631
1 1 4.60941 5.44341 5.31164 2.06837 1.60987 0.285111
5 2 3.80954 5.94726 4.72731 11.0295 -4.79893 7.83562
3 2 5.25627 4.25686 3.63064 -13.3225 -13.1208 7.04467
ITEM: TIMESTEP
50300
ITEM: NUMBER OF ATOMS
6
ITEM: BOX BOUNDS pp pp pp
0.0000000000000000e+00 1.0000000000000000e+01
0.0000000000000000e+00 1.0000000000000000e+01
0.0000000000000000e+00 1.0000000000000000e+01
ITEM: ATOMS id type x y z vx vy vz
6 2 5.68626 6.24794 5.49632 0.219611 2.48069 -15.5351
4 2 6.12177 4.03793 4.56963 0.817451 1.05276 -6.39828
2 1 5.12543 4.38323 4.76311 -3.89212 -1.23921 0.482069
1 1 4.8745 5.61343 5.23827 3.83724 0.584006 -0.405488
5 2 3.88649 6.00265 5.41299 2.05978 4.15458 5.91978
3 2 4.30881 3.75089 4.50652 -2.44297 0.119407 15.1011
ITEM: TIMESTEP
50400
ITEM: NUMBER OF ATOMS
6
ITEM: BOX BOUNDS pp pp pp
0.0000000000000000e+00 1.0000000000000000e+01
0.0000000000000000e+00 1.0000000000000000e+01
0.0000000000000000e+00 1.0000000000000000e+01
ITEM: ATOMS id type x y z vx vy vz
6 2 5.73687 6.25664 4.38289 1.03317 -4.33698 -17.2874
4 2 5.15271 3.86131 3.95282 -17.6434 -9.63762 -5.82325
2 1 4.85902 4.35834 4.89147 -0.695476 1.26272 0.236651
1 1 5.14243 5.6405 5.10785 1.34656 -0.585414 -0.249142
5 2 4.82775 6.13289 6.04038 12.7247 4.44214 9.81295
3 2 4.26777 3.76262 5.63395 -3.87289 1.46162 13.4466
ITEM: TIMESTEP
50500
ITEM: NUMBER OF ATOMS
6
ITEM: BOX BOUNDS pp pp pp
0.0000000000000000e+00 1.0000000000000000e+01
0.0000000000000000e+00 1.0000000000000000e+01
0.0000000000000000e+00 1.0000000000000000e+01
ITEM: ATOMS id type x y z vx vy vz
6 2 5.27862 6.16706 4.03453 1.19465 -2.6591 7.48693
4 2 3.85787 4.17788 4.35601 -0.587649 17.5614 15.9668
2 1 4.6158 4.46387 5.0959 -1.46295 -0.642006 3.43773
1 1 5.38533 5.53987 4.90521 1.85255 0.26421 -3.29709
5 2 6.13802 5.8026 5.65566 -0.0438649 -16.0299 -18.8666
3 2 4.71446 3.80752 5.94243 -5.20562 5.62945 -6.26299
ITEM: TIMESTEP
50600
ITEM: NUMBER OF ATOMS
6
ITEM: BOX BOUNDS pp pp pp
0.0000000000000000e+00 1.0000000000000000e+01
0.0000000000000000e+00 1.0000000000000000e+01
0.0000000000000000e+00 1.0000000000000000e+01
ITEM: ATOMS id type x y z vx vy vz
6 2 5.27556 6.25889 4.17772 5.89392 8.13318 -0.670427
4 2 3.50992 5.07122 5.42181 -13.4467 15.9653 9.32218
2 1 4.51866 4.6966 5.35043 0.703634 2.4759 2.54505
1 1 5.48082 5.30421 4.65245 -1.34234 -2.79444 -2.12935
5 2 6.48937 4.92834 4.55765 11.8157 -14.5228 -13.9666
3 2 4.73377 3.73141 5.81028 3.34796 -5.7799 0.3614
ITEM: TIMESTEP
50700
ITEM: NUMBER OF ATOMS
6
ITEM: BOX BOUNDS pp pp pp
0.0000000000000000e+00 1.0000000000000000e+01
0.0000000000000000e+00 1.0000000000000000e+01
0.0000000000000000e+00 1.0000000000000000e+01
ITEM: ATOMS id type x y z vx vy vz
6 2 5.91204 6.02408 4.21176 6.74738 -7.51394 7.14142
4 2 4.455 5.77901 6.23054 5.62583 -8.03516 -2.44799
2 1 4.61319 4.92454 5.53603 2.21099 3.46804 3.60718
1 1 5.38709 5.07511 4.46697 -1.55604 -3.4152 -3.87198
5 2 5.53235 4.23551 3.75347 -10.8887 5.36282 0.0324974
3 2 4.0997 3.96515 5.77024 -9.28901 9.55656 -1.57052
ITEM: TIMESTEP
50800
ITEM: NUMBER OF ATOMS
6
ITEM: BOX BOUNDS pp pp pp
0.0000000000000000e+00 1.0000000000000000e+01
0.0000000000000000e+00 1.0000000000000000e+01
0.0000000000000000e+00 1.0000000000000000e+01
ITEM: ATOMS id type x y z vx vy vz
6 2 6.23905 4.91986 4.13102 -4.66105 -15.2448 -6.49291
4 2 5.47662 5.44394 6.38854 9.34682 -4.76214 -0.81844
2 1 4.78977 5.15821 5.61139 0.0418527 1.72114 0.166133
1 1 5.20969 4.84156 4.38544 -0.0834203 -2.15 -0.328178
5 2 4.51642 4.56739 3.61133 -10.7055 7.58374 3.34151
3 2 3.7769 5.07117 5.90876 6.51504 17.5334 5.90077
ITEM: TIMESTEP
50900
ITEM: NUMBER OF ATOMS
6
ITEM: BOX BOUNDS pp pp pp
0.0000000000000000e+00 1.0000000000000000e+01
0.0000000000000000e+00 1.0000000000000000e+01
0.0000000000000000e+00 1.0000000000000000e+01
ITEM: ATOMS id type x y z vx vy vz
6 2 5.4789 3.71024 4.25191 -5.38707 -10.6265 1.11393
4 2 5.71288 4.99367 6.39487 1.96752 -6.59252 10.2944
2 1 5.06931 5.32967 5.57203 4.88873 0.949185 -1.21665
1 1 4.93411 4.67075 4.42805 -4.99527 -0.620553 1.90171
5 2 4.28142 5.01559 3.61041 1.16577 1.14878 -12.1772
3 2 4.48849 6.27514 5.74371 3.52327 12.1542 -7.39435
ITEM: TIMESTEP
51000
ITEM: NUMBER OF ATOMS
6
ITEM: BOX BOUNDS pp pp pp
0.0000000000000000e+00 1.0000000000000000e+01
0.0000000000000000e+00 1.0000000000000000e+01
0.0000000000000000e+00 1.0000000000000000e+01
ITEM: ATOMS id type x y z vx vy vz
6 2 4.14891 3.70424 4.87248 -5.25676 15.0565 5.23821
4 2 5.58134 4.99739 6.41923 -4.63417 12.7372 -13.0153
2 1 5.37335 5.37364 5.40846 3.64905 -0.545881 -1.06354
1 1 4.62979 4.62781 4.59246 -3.7155 0.0599414 0.774474
5 2 4.40373 4.97289 3.57886 1.84882 -8.14889 12.6501
3 2 5.83108 6.3078 5.12031 8.83389 -13.8543 -1.42846
ITEM: TIMESTEP
51100
ITEM: NUMBER OF ATOMS
6
ITEM: BOX BOUNDS pp pp pp
0.0000000000000000e+00 1.0000000000000000e+01
0.0000000000000000e+00 1.0000000000000000e+01
0.0000000000000000e+00 1.0000000000000000e+01
ITEM: ATOMS id type x y z vx vy vz
6 2 3.53663 4.80151 5.429 -12.1276 13.4668 1.87133
1 1 4.41314 4.76036 4.78671 -1.11805 1.54049 4.72869
5 2 4.2816 4.34497 3.79847 -1.53106 -6.56009 -11.3604
4 2 5.74645 5.66282 6.19459 7.14779 13.2657 7.71213
2 1 5.58485 5.23845 5.2134 0.725863 -2.11166 -4.74378
3 2 6.46175 5.2045 4.57837 11.1842 -13.3663 1.95672
ITEM: TIMESTEP
51200
ITEM: NUMBER OF ATOMS
6
ITEM: BOX BOUNDS pp pp pp
0.0000000000000000e+00 1.0000000000000000e+01
0.0000000000000000e+00 1.0000000000000000e+01
0.0000000000000000e+00 1.0000000000000000e+01
ITEM: ATOMS id type x y z vx vy vz
6 2 3.69094 5.83106 5.21912 5.5571 4.83082 -6.61538
1 1 4.33666 4.94858 5.00202 0.144329 -0.571748 2.60496
5 2 3.81631 3.97411 4.85779 -8.88506 16.591 11.6224
4 2 6.18969 6.01554 5.14417 2.88337 -11.0837 -15.0144
2 1 5.66238 5.05261 4.99556 0.593535 0.33573 -2.36837
3 2 6.31699 4.16462 4.80958 -8.34786 -7.52562 7.18815
ITEM: TIMESTEP
51300
ITEM: NUMBER OF ATOMS
6
ITEM: BOX BOUNDS pp pp pp
0.0000000000000000e+00 1.0000000000000000e+01
0.0000000000000000e+00 1.0000000000000000e+01
0.0000000000000000e+00 1.0000000000000000e+01
ITEM: ATOMS id type x y z vx vy vz
6 2 3.86324 6.01839 4.79714 0.532507 -4.40723 4.35285
1 1 4.39684 5.20066 5.2107 1.21398 3.35352 0.200965
5 2 3.92781 4.73471 6.06128 8.66419 10.3715 11.3053
4 2 6.04755 5.28541 3.93405 -6.58919 -13.7884 -9.25097
2 1 5.60528 4.79659 4.78762 -1.40058 -2.90877 -0.567412
3 2 6.13863 3.99394 5.22948 -0.383892 2.52438 -2.04059
ITEM: TIMESTEP
51400
ITEM: NUMBER OF ATOMS
6
ITEM: BOX BOUNDS pp pp pp
0.0000000000000000e+00 1.0000000000000000e+01
0.0000000000000000e+00 1.0000000000000000e+01
0.0000000000000000e+00 1.0000000000000000e+01
ITEM: ATOMS id type x y z vx vy vz
6 2 3.74197 5.90601 4.78355 -6.03419 5.93257 -2.37821
1 1 4.62809 5.46235 5.30898 2.12964 0.548039 -0.563494
5 2 4.82004 5.80463 6.33366 18.4885 12.99 1.80036
4 2 5.19496 4.17368 3.66791 -12.1158 -13.9003 -3.48555
2 1 5.37012 4.53809 4.69199 -2.75464 -0.351316 1.29751
3 2 6.26673 4.11001 5.20507 7.10907 -7.36651 -4.68324
ITEM: TIMESTEP
51500
ITEM: NUMBER OF ATOMS
6
ITEM: BOX BOUNDS pp pp pp
0.0000000000000000e+00 1.0000000000000000e+01
0.0000000000000000e+00 1.0000000000000000e+01
0.0000000000000000e+00 1.0000000000000000e+01
ITEM: ATOMS id type x y z vx vy vz
6 2 3.89809 5.95096 5.50744 14.7672 -2.89588 7.88874
1 1 4.88812 5.62151 5.23041 4.37384 2.13277 -1.26515
5 2 5.72148 6.31719 5.41344 -12.0419 -2.38867 -12.6267
4 2 4.28398 3.68171 4.60538 7.44364 6.85196 9.80327
2 1 5.11248 4.38122 4.7693 -4.12313 -2.91564 1.30714
3 2 6.09181 4.01716 4.47897 -13.1565 7.76136 -5.56575
ITEM: TIMESTEP
51600
ITEM: NUMBER OF ATOMS
6
ITEM: BOX BOUNDS pp pp pp
0.0000000000000000e+00 1.0000000000000000e+01
0.0000000000000000e+00 1.0000000000000000e+01
0.0000000000000000e+00 1.0000000000000000e+01
ITEM: ATOMS id type x y z vx vy vz
6 2 4.9584 6.15806 6.04122 20.3084 6.03443 5.3966
1 1 5.15919 5.64145 5.11042 0.400615 -1.56359 0.138652
5 2 5.63551 6.23587 4.34381 3.95697 3.76129 -20.5106
4 2 4.37781 3.76607 5.66809 -6.66118 0.574069 17.7706
2 1 4.83758 4.35618 4.88939 -0.543595 1.2086 0.312854
3 2 5.06918 3.86789 3.95101 -15.9004 -6.13973 -8.03683
ITEM: TIMESTEP
51700
ITEM: NUMBER OF ATOMS
6
ITEM: BOX BOUNDS pp pp pp
0.0000000000000000e+00 1.0000000000000000e+01
0.0000000000000000e+00 1.0000000000000000e+01
0.0000000000000000e+00 1.0000000000000000e+01
ITEM: ATOMS id type x y z vx vy vz
6 2 6.23356 5.74748 5.60091 7.7638 -13.4005 -6.84404
1 1 5.39515 5.52678 4.88754 1.89795 -0.743191 -3.78367
5 2 5.24762 6.24798 4.05829 -3.09867 -5.37947 7.10318
4 2 4.75356 3.75823 5.9485 -0.426396 2.73723 -7.81057
2 1 4.60375 4.47437 5.11211 -1.73522 1.69018 3.62519
3 2 3.78081 4.23222 4.39833 -6.17787 4.75835 9.43991
ITEM: TIMESTEP
51800
ITEM: NUMBER OF ATOMS
6
ITEM: BOX BOUNDS pp pp pp
0.0000000000000000e+00 1.0000000000000000e+01
0.0000000000000000e+00 1.0000000000000000e+01
0.0000000000000000e+00 1.0000000000000000e+01
ITEM: ATOMS id type x y z vx vy vz
6 2 6.42865 4.85376 4.45913 -10.3883 -7.85281 -7.21753
1 1 5.48529 5.29731 4.63966 -0.692799 -2.11645 -3.28334
5 2 5.29625 6.27339 4.21857 6.82092 0.0331943 3.34576
4 2 4.68586 3.73533 5.79962 -6.01631 -3.73383 -4.27685
2 1 4.51738 4.70337 5.35912 0.646931 2.08624 3.89915
3 2 3.55988 5.12903 5.53899 10.1302 11.9134 0.810625
ITEM: TIMESTEP
51900
ITEM: NUMBER OF ATOMS
6
ITEM: BOX BOUNDS pp pp pp
0.0000000000000000e+00 1.0000000000000000e+01
0.0000000000000000e+00 1.0000000000000000e+01
0.0000000000000000e+00 1.0000000000000000e+01
ITEM: ATOMS id type x y z vx vy vz
6 2 5.44728 4.26814 3.67803 -8.26565 -4.79152 -12.4785
1 1 5.38316 5.06173 4.45957 -2.68068 -4.29824 -1.20784
5 2 5.9718 5.96582 4.25116 11.1156 3.59172 1.31821
4 2 4.05533 4.01433 5.75342 -8.18791 -2.72579 -7.67553
2 1 4.61313 4.93837 5.54125 2.31459 3.9843 1.78417
3 2 4.5723 5.75013 6.30949 9.70024 7.66658 11.9683
ITEM: TIMESTEP
52000
ITEM: NUMBER OF ATOMS
6
ITEM: BOX BOUNDS pp pp pp
0.0000000000000000e+00 1.0000000000000000e+01
0.0000000000000000e+00 1.0000000000000000e+01
0.0000000000000000e+00 1.0000000000000000e+01
ITEM: ATOMS id type x y z vx vy vz
6 2 4.47408 4.62665 3.60732 -5.3882 10.3255 11.1053
1 1 5.20507 4.83623 4.38766 0.0787928 -3.46396 -1.45787
5 2 6.25772 4.77232 4.08954 -17.2945 -8.70063 3.95624
4 2 3.73562 5.19915 5.8956 19.2922 12.6156 3.55475
2 1 4.79636 5.16596 5.61378 0.148672 3.35371 0.660869
3 2 5.51795 5.37525 6.39216 0.680006 -12.9267 -9.11914
ITEM: TIMESTEP
52100
ITEM: NUMBER OF ATOMS
6
ITEM: BOX BOUNDS pp pp pp
0.0000000000000000e+00 1.0000000000000000e+01
0.0000000000000000e+00 1.0000000000000000e+01
0.0000000000000000e+00 1.0000000000000000e+01
ITEM: ATOMS id type x y z vx vy vz
6 2 4.31953 5.02576 3.61024 -3.82975 5.8451 -3.06328
1 1 4.91988 4.66549 4.4272 -3.64089 -0.561282 1.90615
5 2 5.36239 3.68251 4.33192 -5.03174 -17.9981 3.9416
4 2 4.64775 6.3146 5.69759 3.59788 21.1526 -4.12042
2 1 5.07995 5.33409 5.56965 4.25444 0.576693 -2.0905
3 2 5.67476 4.98182 6.39964 -2.0475 -9.18322 5.43883
ITEM: TIMESTEP
52200
ITEM: NUMBER OF ATOMS
6
ITEM: BOX BOUNDS pp pp pp
0.0000000000000000e+00 1.0000000000000000e+01
0.0000000000000000e+00 1.0000000000000000e+01
0.0000000000000000e+00 1.0000000000000000e+01
ITEM: ATOMS id type x y z vx vy vz
6 2 4.4537 4.94415 3.53819 -5.70889 -5.60134 1.96739
1 1 4.61412 4.63773 4.60298 -1.61902 0.703424 0.985785
5 2 4.06336 3.73246 4.92476 -8.29296 15.7908 7.89449
4 2 5.94197 6.25373 5.04106 4.56017 -18.8957 -12.4032
2 1 5.38561 5.36303 5.39954 2.34264 -0.259239 -0.861426
3 2 5.54661 5.06011 6.46785 0.81898 3.41333 1.05947
ITEM: TIMESTEP
52300
ITEM: NUMBER OF ATOMS
6
ITEM: BOX BOUNDS pp pp pp
0.0000000000000000e+00 1.0000000000000000e+01
0.0000000000000000e+00 1.0000000000000000e+01
0.0000000000000000e+00 1.0000000000000000e+01
ITEM: ATOMS id type x y z vx vy vz
6 2 4.2804 4.25108 3.88199 3.83425 -0.954374 8.46302
1 1 4.40626 4.77848 4.79546 -2.1706 1.25985 3.63426
5 2 3.52399 4.8657 5.40634 -1.03123 14.9702 -1.56036
4 2 6.48449 5.10559 4.60013 4.29532 -11.786 7.14439
2 1 5.59519 5.22449 5.204 1.54635 -1.53918 -3.81813
3 2 5.69634 5.7418 6.11991 0.340214 1.09878 -11.856
ITEM: TIMESTEP
52400
ITEM: NUMBER OF ATOMS
6
ITEM: BOX BOUNDS pp pp pp
0.0000000000000000e+00 1.0000000000000000e+01
0.0000000000000000e+00 1.0000000000000000e+01
0.0000000000000000e+00 1.0000000000000000e+01
ITEM: ATOMS id type x y z vx vy vz
6 2 3.80238 3.9767 4.97497 -7.64055 -4.28386 17.0391
1 1 4.33677 4.95315 5.01422 1.19122 1.22568 1.18643
5 2 3.73648 5.86547 5.13955 -0.0668264 14.3951 -0.388399
4 2 6.28104 4.14967 4.88239 1.12886 -16.856 2.08681
2 1 5.65992 5.04658 4.98483 -1.56517 -0.680368 -1.53335
3 2 6.22207 6.01097 5.01623 11.0346 0.246633 -14.6036
ITEM: TIMESTEP
52500
ITEM: NUMBER OF ATOMS
6
ITEM: BOX BOUNDS pp pp pp
0.0000000000000000e+00 1.0000000000000000e+01
0.0000000000000000e+00 1.0000000000000000e+01
0.0000000000000000e+00 1.0000000000000000e+01
ITEM: ATOMS id type x y z vx vy vz
6 2 3.98352 4.77719 6.1199 6.93346 22.883 3.14866
1 1 4.4137 5.21924 5.22426 0.893501 2.06669 1.11649
5 2 3.81967 5.99305 4.72246 8.91923 -10.8735 8.42922
4 2 6.18285 4.01504 5.28802 -13.0976 11.7619 -6.71014
2 1 5.5867 4.78092 4.77577 -0.243034 -2.97313 -1.27363
3 2 6.01162 5.21232 3.87108 -10.5061 -12.9703 -2.99527
ITEM: TIMESTEP
52600
ITEM: NUMBER OF ATOMS
6
ITEM: BOX BOUNDS pp pp pp
0.0000000000000000e+00 1.0000000000000000e+01
0.0000000000000000e+00 1.0000000000000000e+01
0.0000000000000000e+00 1.0000000000000000e+01
ITEM: ATOMS id type x y z vx vy vz
6 2 4.88523 5.87438 6.27311 17.9654 6.88056 -1.78226
1 1 4.64243 5.4755 5.3 2.87732 1.29163 -1.83855
5 2 3.728 5.83888 4.85629 -16.8393 6.28241 3.59929
4 2 6.26575 4.15179 5.16082 15.4303 -10.27 -2.91102
2 1 5.3608 4.5244 4.6978 -3.25716 -1.00937 1.82768
3 2 5.08499 4.13572 3.73779 -12.0302 -6.25644 1.22358
ITEM: TIMESTEP
52700
ITEM: NUMBER OF ATOMS
6
ITEM: BOX BOUNDS pp pp pp
0.0000000000000000e+00 1.0000000000000000e+01
0.0000000000000000e+00 1.0000000000000000e+01
0.0000000000000000e+00 1.0000000000000000e+01
ITEM: ATOMS id type x y z vx vy vz
6 2 5.74413 6.36065 5.26696 1.90295 4.72354 -7.47868
1 1 4.90584 5.61931 5.22864 3.35548 1.54015 -2.17956
5 2 3.90951 5.93732 5.59561 14.507 -7.53932 8.14089
4 2 6.09036 4.05437 4.4256 -12.433 1.52997 -7.58882
2 1 5.09242 4.38396 4.77088 -3.70502 -1.04691 2.29545
3 2 4.27922 3.6083 4.7193 0.188159 -4.5916 5.54575
ITEM: TIMESTEP
52800
ITEM: NUMBER OF ATOMS
6
ITEM: BOX BOUNDS pp pp pp
0.0000000000000000e+00 1.0000000000000000e+01
0.0000000000000000e+00 1.0000000000000000e+01
0.0000000000000000e+00 1.0000000000000000e+01
ITEM: ATOMS id type x y z vx vy vz
6 2 5.53236 6.22465 4.30031 -4.73992 -1.82982 2.374
1 1 5.17782 5.63801 5.10746 2.22638 -0.350941 -1.72285
5 2 5.058 6.1235 6.06547 19.4334 3.5645 -3.91318
4 2 4.94905 3.85751 3.94649 -13.6629 2.60507 5.31587
2 1 4.82271 4.36295 4.89141 -2.91532 -0.526896 1.10881
3 2 4.45676 3.78238 5.70298 7.17891 6.12063 3.54029
ITEM: TIMESTEP
52900
ITEM: NUMBER OF ATOMS
6
ITEM: BOX BOUNDS pp pp pp
0.0000000000000000e+00 1.0000000000000000e+01
0.0000000000000000e+00 1.0000000000000000e+01
0.0000000000000000e+00 1.0000000000000000e+01
ITEM: ATOMS id type x y z vx vy vz
6 2 5.20834 6.27203 4.08128 -6.737 6.09129 -2.88039
1 1 5.40359 5.51546 4.8805 2.04761 -3.48117 -2.70572
5 2 6.30008 5.68816 5.48848 18.8184 0.39399 -2.94221
4 2 3.70954 4.34186 4.48683 -17.9193 0.823313 1.05793
2 1 4.59621 4.48002 5.12048 -2.0087 3.52877 2.97116
3 2 4.78685 3.75137 5.93367 5.37419 -7.87585 1.60172
ITEM: TIMESTEP
53000
ITEM: NUMBER OF ATOMS
6
ITEM: BOX BOUNDS pp pp pp
0.0000000000000000e+00 1.0000000000000000e+01
0.0000000000000000e+00 1.0000000000000000e+01
0.0000000000000000e+00 1.0000000000000000e+01
ITEM: ATOMS id type x y z vx vy vz
6 2 5.34456 6.29957 4.24283 9.32102 -5.43031 1.53918
1 1 5.47707 5.29151 4.63185 0.680092 -0.910216 -4.00731
5 2 6.39924 4.75663 4.35721 -24.092 -3.91926 0.54177
4 2 3.6024 5.23133 5.6548 20.4143 1.78396 5.98946
2 1 4.52236 4.70869 5.36491 -0.00352182 1.08844 3.5626
3 2 4.66297 3.7097 5.78561 -13.7054 5.44182 -2.77121
ITEM: TIMESTEP
53100
ITEM: NUMBER OF ATOMS
6
ITEM: BOX BOUNDS pp pp pp
0.0000000000000000e+00 1.0000000000000000e+01
0.0000000000000000e+00 1.0000000000000000e+01
0.0000000000000000e+00 1.0000000000000000e+01
ITEM: ATOMS id type x y z vx vy vz
5 2 5.35322 4.30573 3.66241 -7.2455 -6.40532 -20.8979
6 2 6.01672 5.89499 4.30159 5.08609 -3.03793 -1.19927
1 1 5.3763 5.04915 4.4459 -1.48032 -3.4629 -0.26818
2 1 4.62453 4.95194 5.55265 0.81483 3.72959 0.783309
3 2 3.98043 4.10306 5.70665 -6.6213 0.609053 -1.38466
4 2 4.6422 5.68288 6.34845 16.7107 5.65633 17.3435
ITEM: TIMESTEP
53200
ITEM: NUMBER OF ATOMS
6
ITEM: BOX BOUNDS pp pp pp
0.0000000000000000e+00 1.0000000000000000e+01
0.0000000000000000e+00 1.0000000000000000e+01
0.0000000000000000e+00 1.0000000000000000e+01
ITEM: ATOMS id type x y z vx vy vz
5 2 4.45529 4.66643 3.58412 -2.00428 5.45485 3.50334
6 2 6.26525 4.63994 4.08578 -4.04301 -12.3984 -3.87796
1 1 5.1959 4.83079 4.38846 -2.08135 -2.85045 -1.15812
2 1 4.80217 5.16955 5.61511 2.18885 3.29041 1.36069
3 2 3.7348 5.36871 5.88803 4.49976 11.5633 0.67203
4 2 5.57011 5.32045 6.40137 0.266464 -9.86242 -2.7112
ITEM: TIMESTEP
53300
ITEM: NUMBER OF ATOMS
6
ITEM: BOX BOUNDS pp pp pp
0.0000000000000000e+00 1.0000000000000000e+01
0.0000000000000000e+00 1.0000000000000000e+01
0.0000000000000000e+00 1.0000000000000000e+01
ITEM: ATOMS id type x y z vx vy vz
5 2 4.36332 5.05516 3.58734 1.80074 3.3408 10.1001
6 2 5.25726 3.65845 4.33728 -16.701 -3.21895 5.1814
1 1 4.90219 4.65353 4.43529 -2.32284 -2.60975 -0.111127
2 1 5.09654 5.34427 5.56617 2.00907 2.40598 -0.972706
3 2 4.76302 6.35085 5.64228 20.696 2.01277 1.79387
4 2 5.63396 4.96128 6.41752 -2.05683 0.293562 -4.16033
ITEM: TIMESTEP
53400
ITEM: NUMBER OF ATOMS
6
ITEM: BOX BOUNDS pp pp pp
0.0000000000000000e+00 1.0000000000000000e+01
0.0000000000000000e+00 1.0000000000000000e+01
0.0000000000000000e+00 1.0000000000000000e+01
ITEM: ATOMS id type x y z vx vy vz
5 2 4.49637 4.85504 3.52875 -7.53079 -5.9517 -16.5192
6 2 4.00962 3.79751 5.00424 -12.7822 6.72136 13.236
1 1 4.59325 4.65056 4.60414 -1.20384 1.48166 1.33671
2 1 5.40394 5.34947 5.39387 1.21772 -1.32114 -0.811304
3 2 6.02956 6.19435 5.02366 13.9935 -5.80372 -16.5978
4 2 5.50043 5.15237 6.46893 6.15411 3.12131 13.6203
ITEM: TIMESTEP
53500
ITEM: NUMBER OF ATOMS
6
ITEM: BOX BOUNDS pp pp pp
0.0000000000000000e+00 1.0000000000000000e+01
0.0000000000000000e+00 1.0000000000000000e+01
0.0000000000000000e+00 1.0000000000000000e+01
ITEM: ATOMS id type x y z vx vy vz
5 2 4.28312 4.16404 3.91623 -0.47915 0.395071 24.7345
6 2 3.46715 4.96496 5.36184 3.10274 7.92987 -6.04151
1 1 4.39876 4.78843 4.81009 -2.40453 1.80404 1.64171
2 1 5.60385 5.21197 5.1914 2.69143 -1.14944 -1.67035
3 2 6.51443 5.0139 4.62585 -5.32433 -10.2919 3.00073
4 2 5.70672 5.85182 6.08016 -0.717986 -5.83332 -21.3525
ITEM: TIMESTEP
53600
ITEM: NUMBER OF ATOMS
6
ITEM: BOX BOUNDS pp pp pp
0.0000000000000000e+00 1.0000000000000000e+01
0.0000000000000000e+00 1.0000000000000000e+01
0.0000000000000000e+00 1.0000000000000000e+01
ITEM: ATOMS id type x y z vx vy vz
5 2 3.77782 4.03347 5.07707 -5.4577 -7.49529 20.5095
6 2 3.7417 5.85072 5.02514 2.48684 11.2326 -2.46882
1 1 4.33423 4.96027 5.03528 0.503417 2.95982 0.92366
2 1 5.66636 5.03933 4.96651 -1.46122 -3.57628 -1.0273
3 2 6.26337 4.14903 4.96556 4.01242 -4.08387 -0.412131
4 2 6.21247 5.9711 4.91278 10.3717 7.69223 -16.3935
ITEM: TIMESTEP
53700
ITEM: NUMBER OF ATOMS
6
ITEM: BOX BOUNDS pp pp pp
0.0000000000000000e+00 1.0000000000000000e+01
0.0000000000000000e+00 1.0000000000000000e+01
0.0000000000000000e+00 1.0000000000000000e+01
ITEM: ATOMS id type x y z vx vy vz
5 2 4.0185 4.8612 6.19888 3.86386 14.5184 5.45873
6 2 3.78001 5.94557 4.65494 1.36923 -4.32244 -2.78459
1 1 4.42453 5.23595 5.23891 2.54559 2.03089 2.5141
2 1 5.57364 4.76775 4.76338 -2.27939 -1.77046 -2.96838
3 2 6.2264 4.03299 5.31574 -4.21128 1.3076 4.55225
4 2 5.99931 5.11567 3.80505 -4.19384 -14.6069 -1.81322
ITEM: TIMESTEP
53800
ITEM: NUMBER OF ATOMS
6
ITEM: BOX BOUNDS pp pp pp
0.0000000000000000e+00 1.0000000000000000e+01
0.0000000000000000e+00 1.0000000000000000e+01
0.0000000000000000e+00 1.0000000000000000e+01
ITEM: ATOMS id type x y z vx vy vz
5 2 4.99502 5.95826 6.20001 6.81729 0.210041 -11.6188
6 2 3.7148 5.83926 4.91767 0.230644 -2.1452 15.6169
1 1 4.64571 5.48266 5.29628 2.5649 2.65066 -2.29406
2 1 5.35516 4.51607 4.70292 -1.90854 -2.91043 1.79807
3 2 6.27152 4.17039 5.10393 -0.642235 1.16257 -10.6386
4 2 5.01075 4.0468 3.78975 -14.2269 3.86806 12.5509
ITEM: TIMESTEP
53900
ITEM: NUMBER OF ATOMS
6
ITEM: BOX BOUNDS pp pp pp
0.0000000000000000e+00 1.0000000000000000e+01
0.0000000000000000e+00 1.0000000000000000e+01
0.0000000000000000e+00 1.0000000000000000e+01
ITEM: ATOMS id type x y z vx vy vz
5 2 5.68255 6.40969 5.1512 13.2994 7.86843 -12.27
6 2 3.95372 5.9341 5.66138 0.0634381 -0.885485 11.07
1 1 4.92464 5.62139 5.22893 3.15336 -0.892057 -1.93582
2 1 5.07692 4.377 4.77133 -3.16706 1.79673 1.76536
3 2 6.05369 4.06376 4.3487 -1.97299 -2.26832 -9.06818
4 2 4.29389 3.6113 4.83742 -11.2267 -15.4948 12.2994
ITEM: TIMESTEP
54000
ITEM: NUMBER OF ATOMS
6
ITEM: BOX BOUNDS pp pp pp
0.0000000000000000e+00 1.0000000000000000e+01
0.0000000000000000e+00 1.0000000000000000e+01
0.0000000000000000e+00 1.0000000000000000e+01
ITEM: ATOMS id type x y z vx vy vz
5 2 5.48328 6.23808 4.23263 -9.78986 -7.87273 8.35214
6 2 5.18353 6.1169 6.08344 9.18507 -6.18481 -8.78603
1 1 5.18794 5.63448 5.10298 3.94973 -0.18886 -2.98359
2 1 4.81536 4.36797 4.8996 -4.03265 0.165672 3.23078
3 2 4.81072 3.87707 3.91568 -11.7123 6.23589 7.72233
4 2 4.48558 3.73828 5.73933 13.3052 8.09797 -10.234
ITEM: TIMESTEP
54100
ITEM: NUMBER OF ATOMS
6
ITEM: BOX BOUNDS pp pp pp
0.0000000000000000e+00 1.0000000000000000e+01
0.0000000000000000e+00 1.0000000000000000e+01
0.0000000000000000e+00 1.0000000000000000e+01
ITEM: ATOMS id type x y z vx vy vz
2 1 4.58525 4.4874 5.1259 -2.68351 3.7179 1.02996
3 2 3.64978 4.39493 4.62595 -12.3481 6.83395 9.69996
5 2 5.19406 6.25522 4.12044 -6.50298 7.69553 -6.87423
4 2 4.81906 3.75752 5.88985 13.66 -3.89521 5.98722
6 2 6.35022 5.60392 5.38716 11.1575 1.17851 -9.01199
1 1 5.41386 5.51159 4.87229 2.1828 -4.70923 -1.01326
ITEM: TIMESTEP
54200
ITEM: NUMBER OF ATOMS
6
ITEM: BOX BOUNDS pp pp pp
0.0000000000000000e+00 1.0000000000000000e+01
0.0000000000000000e+00 1.0000000000000000e+01
0.0000000000000000e+00 1.0000000000000000e+01
ITEM: ATOMS id type x y z vx vy vz
2 1 4.53165 4.71518 5.38069 0.964232 1.20394 1.16658
3 2 3.65666 5.33464 5.72715 12.7036 11.7577 11.1516
5 2 5.40589 6.32751 4.26167 4.59822 -4.71837 0.690298
4 2 4.59963 3.66587 5.71975 -8.81935 1.48505 3.62764
6 2 6.35445 4.69039 4.26089 -9.86222 -12.4685 -6.61838
1 1 5.46716 5.28324 4.62203 -0.848447 -0.872951 -1.90938
ITEM: TIMESTEP
54300
ITEM: NUMBER OF ATOMS
6
ITEM: BOX BOUNDS pp pp pp
0.0000000000000000e+00 1.0000000000000000e+01
0.0000000000000000e+00 1.0000000000000000e+01
0.0000000000000000e+00 1.0000000000000000e+01
ITEM: ATOMS id type x y z vx vy vz
2 1 4.63865 4.95928 5.56217 0.2831 2.77023 0.914974
3 2 4.71467 5.65186 6.37015 13.525 -7.89241 2.48377
5 2 6.09434 5.83188 4.34654 -1.74709 -12.2673 -0.198875
4 2 3.88664 4.18953 5.65782 2.85357 14.8889 0.492044
6 2 5.27298 4.33891 3.64519 -16.3882 3.80337 3.05976
1 1 5.36418 5.03967 4.43633 -0.135676 -2.64708 -1.40479
ITEM: TIMESTEP
54400
ITEM: NUMBER OF ATOMS
6
ITEM: BOX BOUNDS pp pp pp
0.0000000000000000e+00 1.0000000000000000e+01
0.0000000000000000e+00 1.0000000000000000e+01
0.0000000000000000e+00 1.0000000000000000e+01
ITEM: ATOMS id type x y z vx vy vz
2 1 4.81398 5.17976 5.61452 3.78735 1.00529 0.370055
3 2 5.56366 5.25338 6.41875 11.4571 -2.10818 3.81675
5 2 6.21663 4.53853 4.1317 9.61775 -18.9292 -1.29768
4 2 3.78877 5.49268 5.86154 -8.98206 19.2345 -3.24818
6 2 4.42701 4.74538 3.5833 -5.05155 1.60343 -9.02068
1 1 5.18656 4.81769 4.38603 -4.37825 -0.988561 0.448149
ITEM: TIMESTEP
54500
ITEM: NUMBER OF ATOMS
6
ITEM: BOX BOUNDS pp pp pp
0.0000000000000000e+00 1.0000000000000000e+01
0.0000000000000000e+00 1.0000000000000000e+01
0.0000000000000000e+00 1.0000000000000000e+01
ITEM: ATOMS id type x y z vx vy vz
2 1 5.11911 5.3563 5.55244 1.57503 3.23194 -0.245025
3 2 5.57541 4.87779 6.43155 0.120281 1.32831 -10.9199
5 2 5.1754 3.59054 4.36836 -22.5515 10.5302 3.26457
4 2 4.83244 6.4137 5.62128 22.1681 -7.95377 -2.48659
6 2 4.41652 5.08249 3.55363 3.04138 3.70731 8.67058
1 1 4.88112 4.64664 4.44983 -1.80818 -3.87075 0.368502
ITEM: TIMESTEP
54600
ITEM: NUMBER OF ATOMS
6
ITEM: BOX BOUNDS pp pp pp
0.0000000000000000e+00 1.0000000000000000e+01
0.0000000000000000e+00 1.0000000000000000e+01
0.0000000000000000e+00 1.0000000000000000e+01
ITEM: ATOMS id type x y z vx vy vz
2 1 5.42027 5.33893 5.39066 1.87252 -2.21198 -0.994661
3 2 5.46777 5.22664 6.45127 5.70568 8.95838 5.55167
5 2 3.93664 3.90305 5.04385 -12.7891 2.38498 17.5191
4 2 6.05441 6.1007 4.96346 13.4684 -1.76582 -10.7827
6 2 4.54631 4.79849 3.55453 1.85243 -8.95689 -5.85982
1 1 4.5795 4.65862 4.6084 -2.56381 2.15989 0.455198
ITEM: TIMESTEP
54700
ITEM: NUMBER OF ATOMS
6
ITEM: BOX BOUNDS pp pp pp
0.0000000000000000e+00 1.0000000000000000e+01
0.0000000000000000e+00 1.0000000000000000e+01
0.0000000000000000e+00 1.0000000000000000e+01
ITEM: ATOMS id type x y z vx vy vz
2 1 5.60419 5.20627 5.17583 2.10203 -1.99111 -1.15179
3 2 5.7103 5.91512 6.04157 2.08714 8.07759 -9.05245
5 2 3.47113 5.11682 5.33168 0.218824 10.0819 -0.560005
4 2 6.54554 4.91536 4.67324 -2.46706 -9.66126 -4.02905
6 2 4.28832 4.08723 3.94728 -8.56844 -8.42596 11.6871
1 1 4.39474 4.79079 4.82485 -1.36944 1.98504 1.31581
ITEM: TIMESTEP
54800
ITEM: NUMBER OF ATOMS
6
ITEM: BOX BOUNDS pp pp pp
0.0000000000000000e+00 1.0000000000000000e+01
0.0000000000000000e+00 1.0000000000000000e+01
0.0000000000000000e+00 1.0000000000000000e+01
ITEM: ATOMS id type x y z vx vy vz
2 1 5.66618 5.02809 4.94872 1.25312 -4.11278 -1.84308
3 2 6.19627 5.94286 4.81943 -4.33568 -8.58356 -13.7994
5 2 3.72504 5.85739 4.93705 2.106 -10.2735 -3.93586
4 2 6.24422 4.11909 5.04396 -2.21485 5.23618 1.08796
6 2 3.79871 4.06544 5.186 3.6627 7.31828 13.2766
1 1 4.33702 4.97315 5.05257 -1.18751 4.64169 2.12594
ITEM: TIMESTEP
54900
ITEM: NUMBER OF ATOMS
6
ITEM: BOX BOUNDS pp pp pp
0.0000000000000000e+00 1.0000000000000000e+01