LAMMPS data file via write_data, version 2 Aug 2023, timestep = 69555, units = metal

6 atoms
2 atom types

0 10 xlo xhi
0 10 ylo yhi
0 10 zlo zhi

Masses

1 12.0107
2 1.00794

Atoms # atomic

6 2 4.886531272597346 6.429771645837572 4.405553507241557 0 0 0
1 1 5.268080237766579 5.6087169874511815 5.061027810718467 0 0 0
5 2 6.0341203606383615 5.874378284449587 5.8174773116128415 0 0 0
4 2 3.974328369638309 4.127151611919502 4.179558045383747 0 0 0
2 1 4.732933642832849 4.393240518250246 4.940191683293029 0 0 0
3 2 5.095391924332448 3.5449550352441075 5.584720493610778 0 0 0

Velocities

6 0.4326696617470329 -1.4814543323107745 -1.0131993766824174
1 2.3190385194720755 -0.4931047956347753 -2.3662596476043136
5 3.3790373159629237 -10.869962928772493 -14.753606699505415
4 -5.390731726107667 7.355213578698801 14.629529223868333
2 -2.1286642341805617 1.1949353426347558 2.9172528240757187
3 -0.689491659669937 -3.366869666083397 -5.428405375439282
