ITEM: TIMESTEP
49600
ITEM: NUMBER OF ATOMS
6
ITEM: BOX BOUNDS pp pp pp
0.0000000000000000e+00 1.0000000000000000e+01
0.0000000000000000e+00 1.0000000000000000e+01
0.0000000000000000e+00 1.0000000000000000e+01
ITEM: ATOMS id type x y z vx vy vz
6 2 4.54545 4.47607 3.59994 -13.3149 2.24733 -4.42323
1 1 5.21028 4.85155 4.38505 -2.30406 -0.855233 1.35967
5 2 6.23921 5.02054 4.09676 14.6773 -17.6773 -9.96043
4 2 3.75754 4.99356 5.89229 -17.423 13.739 4.89622
2 1 4.79205 5.14601 5.61546 2.20737 0.84963 -0.503779
3 2 5.43256 5.53847 6.40681 17.2127 1.75771 -0.711398
ITEM: TIMESTEP
49700
ITEM: NUMBER OF ATOMS
6
ITEM: BOX BOUNDS pp pp pp
0.0000000000000000e+00 1.0000000000000000e+01
0.0000000000000000e+00 1.0000000000000000e+01
0.0000000000000000e+00 1.0000000000000000e+01
ITEM: ATOMS id type x y z vx vy vz
6 2 4.27371 4.99133 3.60484 5.67699 -0.13288 -2.74769
1 1 4.93272 4.66564 4.43162 -4.46559 -0.902545 0.527954
5 2 5.5336 3.75577 4.19979 -16.9178 5.21524 12.7615
4 2 4.46069 6.24275 5.79773 16.647 -3.93211 -12.2149
2 1 5.06544 5.33665 5.57114 4.1352 0.60166 -0.511094
3 2 5.75636 4.98249 6.36658 -1.46923 2.43512 2.00019
ITEM: TIMESTEP
49800
ITEM: NUMBER OF ATOMS
6
ITEM: BOX BOUNDS pp pp pp
0.0000000000000000e+00 1.0000000000000000e+01
0.0000000000000000e+00 1.0000000000000000e+01
0.0000000000000000e+00 1.0000000000000000e+01
ITEM: ATOMS id type x y z vx vy vz
6 2 4.40717 4.97206 3.61003 10.8377 -1.10363 4.40391
1 1 4.6136 4.63034 4.59619 -3.74544 1.20293 3.06071
5 2 4.17255 3.69831 4.88512 -11.1832 -2.06259 7.68123
4 2 5.81084 6.31441 5.12718 13.3335 -1.89385 -3.52564
2 1 5.38658 5.36769 5.40299 2.96882 -1.29759 -3.45581
3 2 5.60982 5.0382 6.38927 -3.73372 6.18804 -3.85144
ITEM: TIMESTEP
49900
ITEM: NUMBER OF ATOMS
6
ITEM: BOX BOUNDS pp pp pp
0.0000000000000000e+00 1.0000000000000000e+01
0.0000000000000000e+00 1.0000000000000000e+01
0.0000000000000000e+00 1.0000000000000000e+01
ITEM: ATOMS id type x y z vx vy vz
6 2 4.21573 4.33516 3.78322 -7.30005 -10.6001 -0.892778
1 1 4.40724 4.7671 4.80384 -0.013665 2.92683 3.19884
5 2 3.53802 4.87585 5.47175 -4.82268 11.3736 3.04785
4 2 6.4682 5.15696 4.53202 5.5074 -14.1038 -4.74667
2 1 5.59153 5.23019 5.19669 0.597309 -2.69342 -3.06058
3 2 5.7951 5.66389 6.20854 -0.339408 10.5489 0.944023
ITEM: TIMESTEP
50000
ITEM: NUMBER OF ATOMS
6
ITEM: BOX BOUNDS pp pp pp
0.0000000000000000e+00 1.0000000000000000e+01
0.0000000000000000e+00 1.0000000000000000e+01
0.0000000000000000e+00 1.0000000000000000e+01
ITEM: ATOMS id type x y z vx vy vz
6 2 3.80086 4.04953 4.92109 -1.65829 15.472 9.85776
1 1 4.33511 4.97458 5.03436 -0.162056 0.754713 3.53841
5 2 3.70984 5.86769 5.16507 14.3934 -5.04141 -11.0342
4 2 6.27165 4.12571 4.81256 -16.9394 1.65501 11.178
2 1 5.66838 5.02459 4.96783 0.326971 -0.639707 -3.1833
3 2 6.17846 5.96659 5.07693 2.23919 -13.456 -14.2329
ITEM: TIMESTEP
50100
ITEM: NUMBER OF ATOMS
6
ITEM: BOX BOUNDS pp pp pp
0.0000000000000000e+00 1.0000000000000000e+01
0.0000000000000000e+00 1.0000000000000000e+01
0.0000000000000000e+00 1.0000000000000000e+01
ITEM: ATOMS id type x y z vx vy vz
6 2 3.9956 4.83553 6.15813 9.80334 0.892537 10.3913
4 2 6.10213 3.94961 5.24358 15.0481 -9.55533 5.32755
2 1 5.58239 4.7679 4.7656 -4.07577 -2.90117 0.0720313
1 1 4.41704 5.2328 5.23371 3.46361 3.24472 0.785258
5 2 3.89447 6.04968 4.76544 -9.30303 12.344 -11.5351
3 2 6.01698 5.15645 3.84283 -8.25384 -7.77494 -14.3993
ITEM: TIMESTEP
50200
ITEM: NUMBER OF ATOMS
6
ITEM: BOX BOUNDS pp pp pp
0.0000000000000000e+00 1.0000000000000000e+01
0.0000000000000000e+00 1.0000000000000000e+01
0.0000000000000000e+00 1.0000000000000000e+01
ITEM: ATOMS id type x y z vx vy vz
6 2 5.00094 5.93689 6.27404 10.3334 10.3792 -7.02617
4 2 6.24579 4.06823 5.14706 -11.6993 6.79132 -4.19431
2 1 5.32752 4.50893 4.69402 -2.06109 -1.56679 -0.675965
1 1 4.67031 5.49184 5.30945 2.27107 1.39493 0.0776778
5 2 3.77409 5.92284 4.8107 12.0491 -3.73911 7.57402
3 2 5.00756 4.06252 3.72873 -13.1853 -11.3835 10.7757
ITEM: TIMESTEP
50300
ITEM: NUMBER OF ATOMS
6
ITEM: BOX BOUNDS pp pp pp
0.0000000000000000e+00 1.0000000000000000e+01
0.0000000000000000e+00 1.0000000000000000e+01
0.0000000000000000e+00 1.0000000000000000e+01
ITEM: ATOMS id type x y z vx vy vz
6 2 5.78953 6.27087 5.18861 -3.92617 0.268206 -14.4387
4 2 5.96775 3.98627 4.3647 -2.09431 0.995105 -8.0691
2 1 5.05989 4.36356 4.7906 -4.1302 -1.07379 1.03842
1 1 4.9404 5.63317 5.21104 4.11161 0.426957 -0.892089
5 2 4.03517 6.05315 5.6129 4.63828 4.25142 6.41825
3 2 4.20649 3.72829 4.81607 1.60364 2.19304 14.3459
ITEM: TIMESTEP
50400
ITEM: NUMBER OF ATOMS
6
ITEM: BOX BOUNDS pp pp pp
0.0000000000000000e+00 1.0000000000000000e+01
0.0000000000000000e+00 1.0000000000000000e+01
0.0000000000000000e+00 1.0000000000000000e+01
ITEM: ATOMS id type x y z vx vy vz
6 2 5.60684 6.21478 4.18986 -2.81271 -3.83961 -16.553
4 2 4.74025 3.8789 3.95417 -20.7981 -7.58152 -1.07648
2 1 4.78445 4.37302 4.93791 -1.07832 1.56713 -0.0827937
1 1 5.21674 5.62577 5.06111 1.76346 -0.926789 -0.147908
5 2 5.23784 6.11681 6.04508 16.6303 2.4874 6.48993
3 2 4.40337 3.80355 5.82433 -1.18371 1.3034 13.8886
ITEM: TIMESTEP
50500
ITEM: NUMBER OF ATOMS
6
ITEM: BOX BOUNDS pp pp pp
0.0000000000000000e+00 1.0000000000000000e+01
0.0000000000000000e+00 1.0000000000000000e+01
0.0000000000000000e+00 1.0000000000000000e+01
ITEM: ATOMS id type x y z vx vy vz
6 2 5.21263 6.19297 4.04791 4.36518 -3.75724 7.4422
4 2 3.59755 4.43436 4.66704 6.41304 17.3603 15.5628
2 1 4.5664 4.5261 5.177 -1.15954 -0.383623 3.48131
1 1 5.43559 5.47743 4.82391 1.50139 -0.0934824 -3.44641
5 2 6.3977 5.54501 5.3456 -7.57431 -15.2711 -18.267
3 2 4.77085 3.78522 5.93049 -7.27742 7.35334 -5.15388
ITEM: TIMESTEP
50600
ITEM: NUMBER OF ATOMS
6
ITEM: BOX BOUNDS pp pp pp
0.0000000000000000e+00 1.0000000000000000e+01
0.0000000000000000e+00 1.0000000000000000e+01
0.0000000000000000e+00 1.0000000000000000e+01
ITEM: ATOMS id type x y z vx vy vz
6 2 5.4406 6.247 4.23556 10.1878 5.92787 -0.940915
4 2 3.72024 5.39469 5.77706 -5.77817 19.0909 12.3958
2 1 4.53816 4.78574 5.43301 1.37953 2.31073 2.17905
1 1 5.46218 5.21472 4.57006 -2.00413 -2.49284 -1.65324
5 2 6.27572 4.6095 4.20279 3.77001 -16.6751 -16.3567
3 2 4.56179 3.74293 5.74989 -0.736837 -6.17359 -1.3637
ITEM: TIMESTEP
50700
ITEM: NUMBER OF ATOMS
6
ITEM: BOX BOUNDS pp pp pp
0.0000000000000000e+00 1.0000000000000000e+01
0.0000000000000000e+00 1.0000000000000000e+01
0.0000000000000000e+00 1.0000000000000000e+01
ITEM: ATOMS id type x y z vx vy vz
6 2 6.16019 5.68341 4.16873 5.93193 -12.0321 6.07763
4 2 4.94285 5.76353 6.35634 0.669665 -7.4301 -4.05103
2 1 4.67245 5.01214 5.57879 3.25524 2.88566 3.15173
1 1 5.32815 4.98697 4.42415 -2.64501 -3.0512 -3.50294
5 2 5.04846 4.25771 3.63128 -7.08529 7.36554 2.31862
3 2 3.84373 4.30548 5.81043 -6.78788 14.0693 -0.160075
ITEM: TIMESTEP
50800
ITEM: NUMBER OF ATOMS
6
ITEM: BOX BOUNDS pp pp pp
0.0000000000000000e+00 1.0000000000000000e+01
0.0000000000000000e+00 1.0000000000000000e+01
0.0000000000000000e+00 1.0000000000000000e+01
ITEM: ATOMS id type x y z vx vy vz
6 2 6.05337 4.35502 4.11947 -11.9548 -12.6727 -4.67742
4 2 5.65326 5.20776 6.37015 5.30365 -6.23542 -1.12755
2 1 4.89516 5.2475 5.60899 0.515313 2.72904 -0.270838
1 1 5.1041 4.75238 4.38782 -0.780952 -3.07645 0.145153
5 2 4.34613 4.80629 3.62876 -5.03198 9.25192 3.53273
3 2 3.95855 5.63196 5.92147 14.8485 13.796 3.76992
ITEM: TIMESTEP
50900
ITEM: NUMBER OF ATOMS
6
ITEM: BOX BOUNDS pp pp pp
0.0000000000000000e+00 1.0000000000000000e+01
0.0000000000000000e+00 1.0000000000000000e+01
0.0000000000000000e+00 1.0000000000000000e+01
ITEM: ATOMS id type x y z vx vy vz
6 2 4.86421 3.5194 4.5125 -9.09677 -8.93605 4.1592
4 2 5.66357 4.94098 6.41743 -0.696937 -2.5881 11.5955
2 1 5.21313 5.36486 5.51211 4.77646 -0.663463 -1.67702
1 1 4.79027 4.63417 4.4882 -4.7227 1.08925 2.32194
5 2 4.33491 5.06998 3.58529 1.29153 -3.67142 -12.3409
3 2 5.09934 6.48088 5.48298 7.8616 10.1218 -11.0987
ITEM: TIMESTEP
51000
ITEM: NUMBER OF ATOMS
6
ITEM: BOX BOUNDS pp pp pp
0.0000000000000000e+00 1.0000000000000000e+01
0.0000000000000000e+00 1.0000000000000000e+01
0.0000000000000000e+00 1.0000000000000000e+01
ITEM: ATOMS id type x y z vx vy vz
6 2 3.70638 4.15742 5.2014 2.53526 17.1997 1.79031
4 2 5.56859 5.26039 6.4027 1.1958 11.1655 -17.4695
2 1 5.49885 5.32147 5.3057 2.94439 -1.22915 -1.22106
1 1 4.50466 4.67892 4.69499 -3.21792 0.743308 1.05074
5 2 4.40652 4.71882 3.60398 -2.06056 -6.47287 15.4817
3 2 6.27912 5.85839 4.78546 1.58885 -16.1029 2.22705
ITEM: TIMESTEP
51100
ITEM: NUMBER OF ATOMS
6
ITEM: BOX BOUNDS pp pp pp
0.0000000000000000e+00 1.0000000000000000e+01
0.0000000000000000e+00 1.0000000000000000e+01
0.0000000000000000e+00 1.0000000000000000e+01
ITEM: ATOMS id type x y z vx vy vz
1 1 4.35516 4.851 4.8997 -0.297527 3.07729 4.71955
5 2 4.0407 4.05319 4.24754 -4.0175 -12.229 -3.80505
3 2 6.42668 4.57899 4.61858 7.23877 -11.735 7.18942
6 2 3.57608 5.43353 5.38341 -8.22904 13.8391 -3.7041
4 2 5.9861 5.94257 5.74443 10.9057 14.5715 -2.43132
2 1 5.64257 5.14827 5.10096 -0.19743 -3.45045 -4.48868
ITEM: TIMESTEP
51200
ITEM: NUMBER OF ATOMS
6
ITEM: BOX BOUNDS pp pp pp
0.0000000000000000e+00 1.0000000000000000e+01
0.0000000000000000e+00 1.0000000000000000e+01
0.0000000000000000e+00 1.0000000000000000e+01
ITEM: ATOMS id type x y z vx vy vz
1 1 4.35144 5.07568 5.12925 0.993337 0.459345 3.80295
5 2 3.74201 4.27918 5.61989 -3.6674 20.1692 4.50575
3 2 6.17795 3.96594 5.09655 -6.02853 -1.65737 8.13583
6 2 3.83434 6.04308 4.92893 3.35854 0.0140098 -5.57648
4 2 6.26373 5.71164 4.38679 -2.68709 -16.3157 -9.50649
2 1 5.64726 4.9243 4.86821 -0.236 -0.644819 -3.59807
ITEM: TIMESTEP
51300
ITEM: NUMBER OF ATOMS
6
ITEM: BOX BOUNDS pp pp pp
0.0000000000000000e+00 1.0000000000000000e+01
0.0000000000000000e+00 1.0000000000000000e+01
0.0000000000000000e+00 1.0000000000000000e+01
ITEM: ATOMS id type x y z vx vy vz
1 1 4.51155 5.36011 5.28371 1.42248 2.65741 -0.563456
5 2 4.40715 5.39705 6.35457 14.1726 11.9652 2.21682
3 2 6.17854 4.04863 5.26811 -1.8472 1.66005 -6.54414
6 2 3.8333 5.97373 4.74572 3.10984 -2.59173 8.93741
4 2 5.56647 4.62401 3.64009 -11.3 -14.7082 0.411125
2 1 5.48987 4.63621 4.71574 -1.76951 -2.34903 0.142074
ITEM: TIMESTEP
51400
ITEM: NUMBER OF ATOMS
6
ITEM: BOX BOUNDS pp pp pp
0.0000000000000000e+00 1.0000000000000000e+01
0.0000000000000000e+00 1.0000000000000000e+01
0.0000000000000000e+00 1.0000000000000000e+01
ITEM: ATOMS id type x y z vx vy vz
1 1 4.80104 5.5779 5.27296 2.20336 -0.367964 -0.524169
5 2 5.46798 6.23095 5.84705 18.2112 8.58069 -11.8258
3 2 6.26819 4.11028 4.80264 4.73343 -9.83471 -8.90239
6 2 3.73163 5.89936 5.17729 -7.7364 6.30541 3.28012
4 2 4.54926 3.7474 4.15308 -13.6428 -11.1243 7.32891
2 1 5.19774 4.42307 4.72887 -2.33472 0.877606 1.37337
ITEM: TIMESTEP
51500
ITEM: NUMBER OF ATOMS
6
ITEM: BOX BOUNDS pp pp pp
0.0000000000000000e+00 1.0000000000000000e+01
0.0000000000000000e+00 1.0000000000000000e+01
0.0000000000000000e+00 1.0000000000000000e+01
ITEM: ATOMS id type x y z vx vy vz
1 1 5.06109 5.65155 5.15386 3.81545 1.20839 -2.94406
5 2 5.79086 6.29679 4.63351 -14.1873 -3.72689 1.41384
3 2 5.47881 3.87363 4.03243 -17.1715 9.80613 1.01694
6 2 4.50376 6.09295 5.96814 19.59 -5.11507 -1.4936
4 2 4.22578 3.70548 5.37782 9.00076 8.58724 -0.64639
2 1 4.93918 4.35103 4.8453 -3.58315 -2.00995 2.91966
ITEM: TIMESTEP
51600
ITEM: NUMBER OF ATOMS
6
ITEM: BOX BOUNDS pp pp pp
0.0000000000000000e+00 1.0000000000000000e+01
0.0000000000000000e+00 1.0000000000000000e+01
0.0000000000000000e+00 1.0000000000000000e+01
ITEM: ATOMS id type x y z vx vy vz
1 1 5.33918 5.57803 4.97416 1.54661 -2.38148 0.393224
5 2 5.33392 6.18276 4.08301 -5.86015 5.42816 -16.9296
3 2 4.11184 4.03964 4.17501 -19.4652 1.37367 3.34071
6 2 5.90917 5.98072 5.80183 20.7762 -1.81116 -8.12764
4 2 4.68584 3.81568 5.91829 2.44516 -0.549905 16.4328
2 1 4.6576 4.42036 5.02783 -1.37004 2.00881 0.0501842
ITEM: TIMESTEP
51700
ITEM: NUMBER OF ATOMS
6
ITEM: BOX BOUNDS pp pp pp
0.0000000000000000e+00 1.0000000000000000e+01
0.0000000000000000e+00 1.0000000000000000e+01
0.0000000000000000e+00 1.0000000000000000e+01
ITEM: ATOMS id type x y z vx vy vz
1 1 5.46838 5.37024 4.70027 0.238971 -1.35915 -3.81389
5 2 5.25702 6.30913 4.14479 2.15402 -5.68642 7.95116
3 2 3.45387 4.90166 5.1926 0.222877 6.56637 9.76656
6 2 6.54735 5.07501 4.79708 -1.36454 -15.8567 -8.60243
4 2 4.74686 3.69394 5.86093 -5.93517 4.73188 -6.39195
2 1 4.5314 4.63143 5.30027 0.174152 2.21891 3.58535
ITEM: TIMESTEP
51800
ITEM: NUMBER OF ATOMS
6
ITEM: BOX BOUNDS pp pp pp
0.0000000000000000e+00 1.0000000000000000e+01
0.0000000000000000e+00 1.0000000000000000e+01
0.0000000000000000e+00 1.0000000000000000e+01
ITEM: ATOMS id type x y z vx vy vz
1 1 5.41789 5.10859 4.48355 -1.63151 -1.49744 -2.23474
5 2 5.76983 6.11269 4.29751 10.2202 -7.86651 -0.0688542
3 2 4.23899 5.65209 6.17411 16.0329 5.52702 -6.73461
6 2 5.7385 4.34086 3.82824 -15.6654 0.702433 1.86836
4 2 4.22919 3.89705 5.72561 -11.9902 4.97051 -1.88345
2 1 4.58429 4.89115 5.51447 1.74921 1.21769 2.80695
ITEM: TIMESTEP
51900
ITEM: NUMBER OF ATOMS
6
ITEM: BOX BOUNDS pp pp pp
0.0000000000000000e+00 1.0000000000000000e+01
0.0000000000000000e+00 1.0000000000000000e+01
0.0000000000000000e+00 1.0000000000000000e+01
ITEM: ATOMS id type x y z vx vy vz
1 1 5.24417 4.87914 4.39301 -4.41824 -2.86788 0.0221464
5 2 6.29077 5.0711 4.13127 11.4279 -9.61088 0.717598
3 2 5.41443 5.49667 6.42775 13.1412 -0.617111 10.3537
6 2 4.61303 4.50396 3.55508 -10.262 1.94796 -10.773
4 2 3.71098 4.89598 5.86717 -9.42695 9.74932 -7.42299
2 1 4.75358 5.12354 5.60872 4.0087 2.74458 0.575758
ITEM: TIMESTEP
52000
ITEM: NUMBER OF ATOMS
6
ITEM: BOX BOUNDS pp pp pp
0.0000000000000000e+00 1.0000000000000000e+01
0.0000000000000000e+00 1.0000000000000000e+01
0.0000000000000000e+00 1.0000000000000000e+01
ITEM: ATOMS id type x y z vx vy vz
1 1 4.97667 4.67428 4.41952 -2.92631 -4.12156 -0.0397672
5 2 5.57587 3.78172 4.18379 -16.5118 6.24866 7.56675
3 2 5.68234 4.98335 6.37252 -9.95143 -4.33456 -8.38519
6 2 4.3142 5.02694 3.62787 4.8356 7.41016 10.323
4 2 4.39591 6.20273 5.80377 21.0729 -4.53848 -0.702612
2 1 5.02619 5.32612 5.58165 2.97286 3.71993 -0.69889
ITEM: TIMESTEP
52100
ITEM: NUMBER OF ATOMS
6
ITEM: BOX BOUNDS pp pp pp
0.0000000000000000e+00 1.0000000000000000e+01
0.0000000000000000e+00 1.0000000000000000e+01
0.0000000000000000e+00 1.0000000000000000e+01
ITEM: ATOMS id type x y z vx vy vz
1 1 4.65234 4.6344 4.56195 -2.741 1.25446 2.45982
5 2 4.24313 3.69077 4.88436 -15.6054 -6.37517 11.7504
6 2 4.42118 4.96563 3.56587 0.064163 0.780037 -3.85482
3 2 5.58185 5.04591 6.4395 -6.75423 1.24122 6.0967
4 2 5.76364 6.31133 5.14657 16.9249 9.19729 -13.2775
2 1 5.34705 5.36442 5.43516 3.1917 -1.66091 -2.5198
ITEM: TIMESTEP
52200
ITEM: NUMBER OF ATOMS
6
ITEM: BOX BOUNDS pp pp pp
0.0000000000000000e+00 1.0000000000000000e+01
0.0000000000000000e+00 1.0000000000000000e+01
0.0000000000000000e+00 1.0000000000000000e+01
ITEM: ATOMS id type x y z vx vy vz
1 1 4.42411 4.75602 4.78631 -0.514598 0.391807 1.86717
5 2 3.49089 4.75588 5.38707 4.44762 17.6341 -1.21942
6 2 4.33204 4.33493 3.75276 -9.34111 -3.39267 4.38617
3 2 5.66937 5.67014 6.24955 5.25158 7.41804 -2.40319
4 2 6.50042 5.21365 4.59468 -10.1663 -20.477 -1.74882
2 1 5.57671 5.24608 5.21518 1.3377 -0.491044 -1.78448
ITEM: TIMESTEP
52300
ITEM: NUMBER OF ATOMS
6
ITEM: BOX BOUNDS pp pp pp
0.0000000000000000e+00 1.0000000000000000e+01
0.0000000000000000e+00 1.0000000000000000e+01
0.0000000000000000e+00 1.0000000000000000e+01
ITEM: ATOMS id type x y z vx vy vz
1 1 4.33649 4.94576 4.99715 -0.793015 3.38004 3.43409
5 2 3.69255 5.78861 5.18189 4.12647 4.74507 -8.04946
6 2 3.84766 4.00721 4.89098 7.55041 5.51392 11.4073
3 2 6.13131 5.99849 5.11328 -4.39032 -10.2678 -13.6747
4 2 6.30746 4.19842 4.8458 1.8604 0.0737615 8.70003
2 1 5.66548 5.05481 5.00033 0.0253998 -3.38549 -3.2984
ITEM: TIMESTEP
52400
ITEM: NUMBER OF ATOMS
6
ITEM: BOX BOUNDS pp pp pp
0.0000000000000000e+00 1.0000000000000000e+01
0.0000000000000000e+00 1.0000000000000000e+01
0.0000000000000000e+00 1.0000000000000000e+01
ITEM: ATOMS id type x y z vx vy vz
1 1 4.40492 5.19605 5.22447 2.50175 1.059 1.12654
5 2 3.88717 6.01628 4.71271 -1.59085 9.80411 -6.22661
6 2 3.93166 4.76692 6.13433 3.74344 10.3632 19.0489
3 2 6.0867 5.21446 3.86567 0.653777 -11.9843 -15.8786
4 2 6.13968 4.0045 5.28012 2.76248 -10.1291 9.02282
2 1 5.59149 4.80374 4.77628 -2.96909 -0.89569 -1.62725
ITEM: TIMESTEP
52500
ITEM: NUMBER OF ATOMS
6
ITEM: BOX BOUNDS pp pp pp
0.0000000000000000e+00 1.0000000000000000e+01
0.0000000000000000e+00 1.0000000000000000e+01
0.0000000000000000e+00 1.0000000000000000e+01
ITEM: ATOMS id type x y z vx vy vz
1 1 4.63621 5.47335 5.29216 2.24179 1.69845 0.723037
5 2 3.71306 5.88971 4.8599 14.1376 -4.27896 11.2354
6 2 4.9267 5.84423 6.27488 5.91472 14.3923 -16.1751
3 2 5.0675 4.14471 3.73031 -10.2448 -6.16657 11.3087
4 2 6.29438 4.12511 5.1415 -16.4115 7.44713 -8.77304
2 1 5.36385 4.5263 4.70744 -1.68758 -2.65462 -0.521291
ITEM: TIMESTEP
52600
ITEM: NUMBER OF ATOMS
6
ITEM: BOX BOUNDS pp pp pp
0.0000000000000000e+00 1.0000000000000000e+01
0.0000000000000000e+00 1.0000000000000000e+01
0.0000000000000000e+00 1.0000000000000000e+01
ITEM: ATOMS id type x y z vx vy vz
1 1 4.91521 5.6232 5.22017 1.58108 -0.580197 -1.73053
5 2 3.96943 5.93945 5.62165 -3.38811 10.7763 18.1556
6 2 5.71543 6.34455 5.26268 9.75158 -2.16454 -16.041
3 2 4.27244 3.67809 4.76335 -6.44831 1.64904 10.3279
4 2 6.04086 4.05714 4.39158 4.05828 -14.5281 -15.8862
2 1 5.08515 4.37515 4.77669 -1.91453 0.938309 2.01953
ITEM: TIMESTEP
52700
ITEM: NUMBER OF ATOMS
6
ITEM: BOX BOUNDS pp pp pp
0.0000000000000000e+00 1.0000000000000000e+01
0.0000000000000000e+00 1.0000000000000000e+01
0.0000000000000000e+00 1.0000000000000000e+01
ITEM: ATOMS id type x y z vx vy vz
1 1 5.19153 5.63302 5.08426 1.98383 -0.232576 -2.83527
5 2 5.15877 6.09714 6.09363 17.6667 -10.9077 -6.18471
6 2 5.55382 6.25361 4.22621 -0.408853 3.94611 -5.04964
3 2 4.44215 3.71108 5.75181 -1.41487 -4.65413 2.23202
4 2 4.86012 3.89392 3.91771 -15.9043 5.30592 5.32685
2 1 4.80743 4.37065 4.91679 -1.97869 0.762096 3.14371
ITEM: TIMESTEP
52800
ITEM: NUMBER OF ATOMS
6
ITEM: BOX BOUNDS pp pp pp
0.0000000000000000e+00 1.0000000000000000e+01
0.0000000000000000e+00 1.0000000000000000e+01
0.0000000000000000e+00 1.0000000000000000e+01
ITEM: ATOMS id type x y z vx vy vz
1 1 5.43157 5.49351 4.85687 1.24412 -1.74265 -2.73398
5 2 6.36805 5.62507 5.38078 6.38771 -5.49833 -16.7443
6 2 5.17019 6.21921 4.12868 6.28897 -3.27961 7.60056
3 2 4.83305 3.78975 5.88151 1.80625 4.79224 -6.8366
4 2 3.63619 4.3515 4.61721 -0.341288 8.85699 12.0859
2 1 4.56801 4.50767 5.14259 -2.43089 1.33385 3.0608
ITEM: TIMESTEP
52900
ITEM: NUMBER OF ATOMS
6
ITEM: BOX BOUNDS pp pp pp
0.0000000000000000e+00 1.0000000000000000e+01
0.0000000000000000e+00 1.0000000000000000e+01
0.0000000000000000e+00 1.0000000000000000e+01
ITEM: ATOMS id type x y z vx vy vz
1 1 5.46375 5.25657 4.59665 -1.38573 -4.06467 -2.67614
5 2 6.30151 4.65408 4.2394 7.0284 -10.8191 -15.1689
6 2 5.4518 6.31939 4.25508 4.52892 8.85731 3.24274
3 2 4.57251 3.69106 5.756 -7.86938 -8.19763 -2.68142
4 2 3.7069 5.37403 5.73666 -7.3749 12.2162 13.1367
2 1 4.53371 4.74016 5.40458 1.69514 3.89207 2.79959
ITEM: TIMESTEP
53000
ITEM: NUMBER OF ATOMS
6
ITEM: BOX BOUNDS pp pp pp
0.0000000000000000e+00 1.0000000000000000e+01
0.0000000000000000e+00 1.0000000000000000e+01
0.0000000000000000e+00 1.0000000000000000e+01
ITEM: ATOMS id type x y z vx vy vz
1 1 5.35336 5.00998 4.43248 -0.0481234 -1.45501 -2.82335
5 2 5.1276 4.3067 3.60648 -11.7315 10.1905 16.6057
6 2 6.13428 5.7526 4.26773 2.45739 -15.8007 -5.51929
3 2 3.88287 4.22987 5.75391 -4.50016 19.0089 7.11508
4 2 4.86413 5.68028 6.39984 9.67755 -12.3408 -9.55068
2 1 4.6461 4.99255 5.56533 0.391917 1.36623 2.09737
ITEM: TIMESTEP
53100
ITEM: NUMBER OF ATOMS
6
ITEM: BOX BOUNDS pp pp pp
0.0000000000000000e+00 1.0000000000000000e+01
0.0000000000000000e+00 1.0000000000000000e+01
0.0000000000000000e+00 1.0000000000000000e+01
ITEM: ATOMS id type x y z vx vy vz
5 2 4.40283 4.78854 3.59445 -7.66334 3.60684 -17.2929
1 1 5.13508 4.77989 4.38014 -3.56789 -2.8533 0.946257
6 2 6.10873 4.40553 4.14202 -4.25909 -9.79156 0.536679
3 2 3.88584 5.58721 5.8617 0.869691 11.0607 -3.1382
2 1 4.86672 5.22063 5.61847 3.70403 3.43842 -0.24065
4 2 5.58351 5.21214 6.42022 9.43048 -11.8483 11.4863
ITEM: TIMESTEP
53200
ITEM: NUMBER OF ATOMS
6
ITEM: BOX BOUNDS pp pp pp
0.0000000000000000e+00 1.0000000000000000e+01
0.0000000000000000e+00 1.0000000000000000e+01
0.0000000000000000e+00 1.0000000000000000e+01
ITEM: ATOMS id type x y z vx vy vz
5 2 4.37213 5.09009 3.57979 1.44143 -1.86708 2.05423
1 1 4.83228 4.6291 4.4758 -3.86977 -0.62258 0.582424
6 2 4.92279 3.50674 4.42646 -12.7466 -6.07324 4.54643
3 2 5.0818 6.48986 5.54893 11.9804 3.79143 -6.69783
2 1 5.16811 5.37399 5.52716 4.3269 0.793476 -0.54851
4 2 5.62112 4.87607 6.41134 -6.1224 2.11247 -0.306954
ITEM: TIMESTEP
53300
ITEM: NUMBER OF ATOMS
6
ITEM: BOX BOUNDS pp pp pp
0.0000000000000000e+00 1.0000000000000000e+01
0.0000000000000000e+00 1.0000000000000000e+01
0.0000000000000000e+00 1.0000000000000000e+01
ITEM: ATOMS id type x y z vx vy vz
5 2 4.46796 4.70477 3.57352 3.29191 0.0672234 10.3075
1 1 4.52759 4.67317 4.6558 -3.8969 -1.0735 2.32288
6 2 3.78273 4.09871 5.15111 -5.62504 16.975 1.00815
3 2 6.22853 5.87691 4.83693 7.67094 -16.316 5.96444
2 1 5.47019 5.32787 5.34581 3.32537 0.576875 -3.12548
4 2 5.5496 5.30684 6.42106 1.47253 5.19161 -7.71617
ITEM: TIMESTEP
53400
ITEM: NUMBER OF ATOMS
6
ITEM: BOX BOUNDS pp pp pp
0.0000000000000000e+00 1.0000000000000000e+01
0.0000000000000000e+00 1.0000000000000000e+01
0.0000000000000000e+00 1.0000000000000000e+01
ITEM: ATOMS id type x y z vx vy vz
5 2 4.10079 4.00662 4.20346 -17.2602 -14.7857 0.343906
1 1 4.36877 4.83193 4.86773 0.429761 0.650386 2.08688
6 2 3.53554 5.3568 5.37195 -0.675787 17.9767 1.0747
3 2 6.49238 4.641 4.66882 1.38916 -21.4755 -2.9531
2 1 5.62893 5.16823 5.12941 -0.130394 -0.183008 -1.92794
4 2 5.90119 5.99319 5.79165 12.9795 12.7152 -0.359441
ITEM: TIMESTEP
53500
ITEM: NUMBER OF ATOMS
6
ITEM: BOX BOUNDS pp pp pp
0.0000000000000000e+00 1.0000000000000000e+01
0.0000000000000000e+00 1.0000000000000000e+01
0.0000000000000000e+00 1.0000000000000000e+01
ITEM: ATOMS id type x y z vx vy vz
5 2 3.77641 4.21949 5.54661 11.8208 21.8745 10.4145
1 1 4.3463 5.05517 5.10336 -0.580581 2.50857 1.79879
6 2 3.74929 5.95859 4.91665 1.72705 -5.06855 -0.343373
3 2 6.22474 4.0354 5.10354 -6.18451 3.50536 1.76355
2 1 5.6569 4.94486 4.89629 0.909824 -2.57653 -2.33898
4 2 6.2139 5.78585 4.43919 -11.2866 -19.5015 -5.39778
ITEM: TIMESTEP
53600
ITEM: NUMBER OF ATOMS
6
ITEM: BOX BOUNDS pp pp pp
0.0000000000000000e+00 1.0000000000000000e+01
0.0000000000000000e+00 1.0000000000000000e+01
0.0000000000000000e+00 1.0000000000000000e+01
ITEM: ATOMS id type x y z vx vy vz
5 2 4.30122 5.3391 6.34617 15.5173 14.2556 13.8324
1 1 4.49732 5.33378 5.2875 1.65828 1.76891 -0.619598
6 2 3.80067 5.87782 4.6882 -0.978622 1.85133 -3.17418
3 2 6.19897 4.11415 5.31211 3.55223 -5.21229 -6.20981
2 1 5.50377 4.6674 4.71259 -2.42647 -1.60812 1.49813
4 2 5.68868 4.65435 3.65428 -8.93713 -12.8106 -14.9172
ITEM: TIMESTEP
53700
ITEM: NUMBER OF ATOMS
6
ITEM: BOX BOUNDS pp pp pp
0.0000000000000000e+00 1.0000000000000000e+01
0.0000000000000000e+00 1.0000000000000000e+01
0.0000000000000000e+00 1.0000000000000000e+01
ITEM: ATOMS id type x y z vx vy vz
5 2 5.40116 6.21344 5.89603 4.9531 8.12888 -9.19573
1 1 4.76014 5.56063 5.26986 4.67282 1.39667 -0.935522
6 2 3.67376 5.83493 5.19495 0.193982 -2.70873 9.17818
3 2 6.31739 4.12583 4.8098 1.24927 3.68652 -4.49191
2 1 5.23936 4.44403 4.7294 -4.97921 -1.75066 0.49618
4 2 4.61616 3.76992 4.10992 -2.74543 -4.88849 9.74469
ITEM: TIMESTEP
53800
ITEM: NUMBER OF ATOMS
6
ITEM: BOX BOUNDS pp pp pp
0.0000000000000000e+00 1.0000000000000000e+01
0.0000000000000000e+00 1.0000000000000000e+01
0.0000000000000000e+00 1.0000000000000000e+01
ITEM: ATOMS id type x y z vx vy vz
5 2 5.69832 6.32631 4.66897 -5.40372 -9.55059 -3.35131
1 1 5.03233 5.6423 5.17956 0.678224 0.152041 -1.25935
6 2 4.43746 6.07302 5.95639 24.7161 3.43226 2.35749
3 2 5.58159 3.95237 4.05551 -19.99 -1.67512 -1.08933
2 1 4.96699 4.35578 4.82004 -0.853514 -0.741643 0.767248
4 2 4.2932 3.67081 5.32569 2.76644 14.8192 7.94704
ITEM: TIMESTEP
53900
ITEM: NUMBER OF ATOMS
6
ITEM: BOX BOUNDS pp pp pp
0.0000000000000000e+00 1.0000000000000000e+01
0.0000000000000000e+00 1.0000000000000000e+01
0.0000000000000000e+00 1.0000000000000000e+01
ITEM: ATOMS id type x y z vx vy vz
5 2 5.30582 6.27604 4.14037 -4.6712 6.2613 -13.5132
1 1 5.31347 5.5889 4.98724 1.58208 -3.05841 -2.45601
6 2 5.82279 5.95353 5.89728 16.3287 -5.65521 2.00913
3 2 4.18396 4.03919 4.09695 -14.8227 1.59228 0.0802726
2 1 4.68673 4.40942 5.01168 -1.61682 4.04115 2.38598
4 2 4.6875 3.7508 5.88017 3.57918 -13.9089 12.2583
ITEM: TIMESTEP
54000
ITEM: NUMBER OF ATOMS
6
ITEM: BOX BOUNDS pp pp pp
0.0000000000000000e+00 1.0000000000000000e+01
0.0000000000000000e+00 1.0000000000000000e+01
0.0000000000000000e+00 1.0000000000000000e+01
ITEM: ATOMS id type x y z vx vy vz
5 2 5.1657 6.31056 4.20791 8.25843 -9.69492 9.94333
1 1 5.47582 5.39028 4.7364 -0.475319 -1.74727 -4.18349
6 2 6.54729 5.17588 4.81695 -9.27708 -8.87624 -6.89181
3 2 3.44923 4.82073 5.18989 8.08387 11.109 7.69557
2 1 4.52793 4.60967 5.2606 0.702098 1.49607 4.45305
4 2 4.79556 3.69302 5.82284 -9.76755 10.4555 -13.9592
ITEM: TIMESTEP
54100
ITEM: NUMBER OF ATOMS
6
ITEM: BOX BOUNDS pp pp pp
0.0000000000000000e+00 1.0000000000000000e+01
0.0000000000000000e+00 1.0000000000000000e+01
0.0000000000000000e+00 1.0000000000000000e+01
ITEM: ATOMS id type x y z vx vy vz
5 2 5.76771 6.15277 4.32739 9.3082 5.20346 0.96848
1 1 5.43142 5.14765 4.5076 -2.49167 -5.25561 -1.41755
6 2 5.78982 4.39262 3.83741 -4.62529 -0.8888 -9.86405
3 2 4.2195 5.59858 6.1684 11.8278 3.02507 9.34326
2 1 4.56624 4.85383 5.49267 1.5793 5.18814 2.08851
4 2 4.25339 3.8379 5.66545 -5.63879 -6.5357 -8.44291
ITEM: TIMESTEP
54200
ITEM: NUMBER OF ATOMS
6
ITEM: BOX BOUNDS pp pp pp
0.0000000000000000e+00 1.0000000000000000e+01
0.0000000000000000e+00 1.0000000000000000e+01
0.0000000000000000e+00 1.0000000000000000e+01
ITEM: ATOMS id type x y z vx vy vz
5 2 6.3332 5.14597 4.16676 -2.21639 -11.4332 -1.76233
1 1 5.27691 4.90832 4.40291 -0.473173 -2.53652 0.104863
6 2 4.6534 4.52768 3.54655 -13.5114 3.94942 0.411766
3 2 5.36549 5.47319 6.44211 13.3113 -8.92576 1.2437
2 1 4.72203 5.09132 5.60013 0.733568 2.87681 -0.815588
4 2 3.66303 4.85708 5.81012 -0.686357 12.3546 8.57593
ITEM: TIMESTEP
54300
ITEM: NUMBER OF ATOMS
6
ITEM: BOX BOUNDS pp pp pp
0.0000000000000000e+00 1.0000000000000000e+01
0.0000000000000000e+00 1.0000000000000000e+01
0.0000000000000000e+00 1.0000000000000000e+01
ITEM: ATOMS id type x y z vx vy vz
5 2 5.66085 3.84757 4.25353 -15.176 -1.29646 4.22584
1 1 5.00508 4.69953 4.3992 -3.42845 -2.9061 -0.142352
6 2 4.36935 4.99907 3.6014 4.87846 4.63019 10.3921
3 2 5.62219 5.01007 6.41324 -8.69675 -3.46939 -4.52366
2 1 4.99366 5.2982 5.59876 3.59162 3.00446 -0.351499
4 2 4.36505 6.16983 5.75798 17.0498 -1.03633 -4.2095
ITEM: TIMESTEP
54400
ITEM: NUMBER OF ATOMS
6
ITEM: BOX BOUNDS pp pp pp
0.0000000000000000e+00 1.0000000000000000e+01
0.0000000000000000e+00 1.0000000000000000e+01
0.0000000000000000e+00 1.0000000000000000e+01
ITEM: ATOMS id type x y z vx vy vz
5 2 4.29065 3.6337 4.7778 -19.4418 -7.51096 14.7985
1 1 4.68155 4.62391 4.551 -1.34859 2.21817 1.25284
6 2 4.50188 5.01828 3.53383 -5.52603 -4.7092 -11.0567
3 2 5.49915 4.99432 6.46523 3.23584 -2.48818 8.19755
2 1 5.31637 5.37607 5.45076 1.62824 -1.44872 -0.620086
4 2 5.73547 6.35346 5.20398 18.3996 5.53944 -19.4793
ITEM: TIMESTEP
54500
ITEM: NUMBER OF ATOMS
6
ITEM: BOX BOUNDS pp pp pp
0.0000000000000000e+00 1.0000000000000000e+01
0.0000000000000000e+00 1.0000000000000000e+01
0.0000000000000000e+00 1.0000000000000000e+01
ITEM: ATOMS id type x y z vx vy vz
5 2 3.50697 4.67695 5.34513 7.40893 15.581 -9.75217
1 1 4.44058 4.74454 4.74945 -4.36891 0.518761 3.74565
6 2 4.39118 4.30674 3.74065 3.1641 -3.07232 10.4083
3 2 5.56383 5.69323 6.26284 1.11225 -1.01578 -10.7792
2 1 5.56323 5.25679 5.25026 3.8015 -0.305489 -3.71694
4 2 6.49507 5.30685 4.65668 -4.92395 -14.0343 9.78101
ITEM: TIMESTEP
54600
ITEM: NUMBER OF ATOMS
6
ITEM: BOX BOUNDS pp pp pp
0.0000000000000000e+00 1.0000000000000000e+01
0.0000000000000000e+00 1.0000000000000000e+01
0.0000000000000000e+00 1.0000000000000000e+01
ITEM: ATOMS id type x y z vx vy vz
5 2 3.68357 5.75009 5.12347 0.944267 16.9935 -0.317484
1 1 4.33811 4.90955 4.97338 -0.748756 0.595993 1.10021
6 2 3.89705 3.9533 4.82501 -4.98964 -0.228338 19.303
3 2 6.13228 6.03679 5.16207 10.4117 -2.5921 -13.9477
2 1 5.65966 5.09077 5.02835 0.088709 -0.7935 -1.63439
4 2 6.31609 4.25556 4.87074 1.49887 -11.8196 1.32753
ITEM: TIMESTEP
54700
ITEM: NUMBER OF ATOMS
6
ITEM: BOX BOUNDS pp pp pp
0.0000000000000000e+00 1.0000000000000000e+01
0.0000000000000000e+00 1.0000000000000000e+01
0.0000000000000000e+00 1.0000000000000000e+01
ITEM: ATOMS id type x y z vx vy vz
5 2 3.78841 5.946 4.68645 -0.158135 0.59904 -1.48428
1 1 4.39446 5.18131 5.20122 1.17646 2.05733 1.61635
6 2 3.92374 4.65904 6.08523 -0.4683 15.3101 15.0278
3 2 6.06971 5.32871 3.91389 -5.14016 -9.0461 -14.3618
2 1 5.60524 4.8205 4.80099 -0.418424 -2.29898 -1.73209
4 2 6.22405 4.0443 5.28998 -3.26628 -3.98354 2.19756
ITEM: TIMESTEP
54800
ITEM: NUMBER OF ATOMS
6
ITEM: BOX BOUNDS pp pp pp
0.0000000000000000e+00 1.0000000000000000e+01
0.0000000000000000e+00 1.0000000000000000e+01
0.0000000000000000e+00 1.0000000000000000e+01
ITEM: ATOMS id type x y z vx vy vz
5 2 3.68511 5.79301 4.8444 5.81808 -1.82824 17.5036
1 1 4.61336 5.45138 5.29727 0.596281 3.50595 -1.35849
6 2 4.8129 5.84013 6.26956 13.1877 2.37668 -12.8931
3 2 5.17606 4.16822 3.72428 -12.0614 -3.31911 14.0718
2 1 5.38943 4.54792 4.70038 -0.754946 -3.1731 0.837066
4 2 6.29503 4.20656 5.19159 -5.05368 -1.19558 -12.469
ITEM: TIMESTEP
54900
ITEM: NUMBER OF ATOMS
6
ITEM: BOX BOUNDS pp pp pp
0.0000000000000000e+00 1.0000000000000000e+01