LAMMPS data file via write_data, version 2 Aug 2023, timestep = 69565, units = metal

6 atoms
2 atom types

0 10 xlo xhi
0 10 ylo yhi
0 10 zlo zhi

Masses

1 12.0107
2 1.00794

Atoms # atomic

6 2 3.5228124874409517 5.4493174893753435 4.729093105486745 0 0 0
1 1 4.391483078982934 4.7890073923445655 4.846543234872893 0 0 0
5 2 4.204440486636901 3.7096957552481618 4.637135116130237 0 0 0
4 2 5.77253402385706 6.2940910328743165 5.347480505153739 0 0 0
2 1 5.611412168930201 5.211536405797254 5.15286697954129 0 0 0
3 2 6.468166394029775 4.539998161239322 5.295160162861703 0 0 0

Velocities

6 -7.931403538557627 11.297780749517637 -4.971662837153035
1 0.2711457657305021 1.2088461014843503 2.8910119032229344
5 -14.041659238819998 -5.29759872893038 10.311620925399371
4 8.96981190476577 6.933361524079857 -15.025654075652785
2 0.05253444074812051 -0.9174320320079605 -2.277747198673359
3 9.146249606712331 -16.406058738289197 2.3779808585935873
