LAMMPS data file via write_data, version 2 Aug 2023, timestep = 69565, units = metal

6 atoms
2 atom types

0 10 xlo xhi
0 10 ylo yhi
0 10 zlo zhi

Masses

1 12.0107
2 1.00794

Atoms # atomic

2 1 5.442562657325071 5.347996710643152 5.37291681179812 0 0 0
3 2 6.078293994570072 6.090417123666475 4.927898000930266 0 0 0
5 2 4.366179449296975 4.825993349661827 3.576998658681218 0 0 0
4 2 5.57831191019262 5.180049748295088 6.428940935911041 0 0 0
6 2 3.889258081892332 3.898306487186328 5.086200694480607 0 0 0
1 1 4.565018515273844 4.652408679264454 4.6255500583568265 0 0 0

Velocities

2 3.6863723874416694 -3.5671371595868306 -4.947307932859633
3 21.492357416014002 5.469672678386827 -23.23798964050789
5 0.7080840089644119 -9.18934046855228 -11.720091377520658
4 -9.553543519099838 1.2583939521453105 15.033781216494331
6 -24.532478942598505 2.899038329345879 14.993924256231427
1 -2.688932392258241 3.5303998885376484 5.361065892606743
