LAMMPS data file via write_data, version 2 Aug 2023, timestep = 69570, units = metal

6 atoms
2 atom types

0 10 xlo xhi
0 10 ylo yhi
0 10 zlo zhi

Masses

1 12.0107
2 1.00794

Atoms # atomic

1 1 4.8240030391350395 5.591258331644707 5.252158809059093 0 0 0
6 2 4.0714407715504635 5.671560576892105 6.054195520060223 0 0 0
5 2 5.289254425756571 6.5322810379674765 4.9705584917979095 0 0 0
4 2 4.707921182799055 3.4801309250927623 5.065275633559711 0 0 0
3 2 5.931574343185891 4.337076443734252 3.938141892073995 0 0 0
2 1 5.17618684641609 4.406940187657157 4.745631523842444 0 0 0

Velocities

1 4.0662270356141095 3.9213264654491473 -0.046268405150998865
6 18.132970414306286 -4.140583141519736 -1.7202015932196306
5 -9.607907033199938 -8.630631176367936 -6.646591985432499
4 11.112166367918594 6.697321145147686 4.283616583583036
3 -17.961068080161496 -3.1517517443929326 6.117363491201006
2 -4.206890809791332 -3.1471087647512874 -0.1244408738179685
