LAMMPS data file via write_data, version 2 Aug 2023, timestep = 69555, units = metal

6 atoms
2 atom types

0 10 xlo xhi
0 10 ylo yhi
0 10 zlo zhi

Masses

1 12.0107
2 1.00794

Atoms # atomic

6 2 6.247853805445898 5.573057237579653 4.209722836050955 0 0 0
1 1 5.360637068504488 5.564364692741253 4.901407363218327 0 0 0
5 2 5.147883924488876 6.505308555756229 5.3477808281396175 0 0 0
4 2 4.904262527291323 3.4909817872117572 4.590934729859997 0 0 0
2 1 4.631347034214426 4.432521848726342 5.103616696772688 0 0 0
3 2 3.797971282135501 4.467335044429098 5.793535427409861 0 0 0

Velocities

6 -5.154288108974229 -15.732437812839652 -34.80997695799288
1 1.7428572074475563 -2.293907137818479 -0.9853631138000986
5 16.70620482581668 -14.314444688984677 -1.1934315701140523
4 -20.288453623661283 23.520846609866243 13.415042786780159
2 -2.173823143203643 2.364893064674035 0.8011039759233121
3 13.871964178863582 5.680161463242691 24.784013525217734
