ITEM: TIMESTEP
91000
ITEM: NUMBER OF ATOMS
6
ITEM: BOX BOUNDS pp pp pp
0.0000000000000000e+00 1.0000000000000000e+01
0.0000000000000000e+00 1.0000000000000000e+01
0.0000000000000000e+00 1.0000000000000000e+01
ITEM: ATOMS id type x y z vx vy vz
1 1 5.20155 4.773 4.40651 -10.4122 -9.0393 -4.0098
5 2 5.20897 3.63164 4.0304 -59.8715 15.6353 38.5252
6 2 5.20635 5.39709 3.56574 21.6694 11.6992 -0.347524
3 2 4.45526 4.53216 6.41998 -2.78914 22.2946 30.4278
4 2 4.87668 6.31066 5.89271 61.2417 29.4862 7.59152
2 1 4.81987 5.23774 5.6013 8.71276 2.39993 -2.38466
ITEM: TIMESTEP
91100
ITEM: NUMBER OF ATOMS
6
ITEM: BOX BOUNDS pp pp pp
0.0000000000000000e+00 1.0000000000000000e+01
0.0000000000000000e+00 1.0000000000000000e+01
0.0000000000000000e+00 1.0000000000000000e+01
ITEM: ATOMS id type x y z vx vy vz
1 1 4.31829 4.93772 5.05092 -1.92916 11.9833 10.4104
5 2 3.59832 5.29817 4.43761 8.87837 -7.51945 7.88494
6 2 3.97864 4.35836 5.99668 24.9228 51.7423 1.49645
3 2 6.2855 5.2791 4.02341 -19.9344 -42.8679 -33.3467
4 2 6.39026 4.72249 5.74497 -22.4213 27.008 -3.21364
2 1 5.66071 5.09093 4.93223 2.64705 -14.3636 -8.12949
ITEM: TIMESTEP
91200
ITEM: NUMBER OF ATOMS
6
ITEM: BOX BOUNDS pp pp pp
0.0000000000000000e+00 1.0000000000000000e+01
0.0000000000000000e+00 1.0000000000000000e+01
0.0000000000000000e+00 1.0000000000000000e+01
ITEM: ATOMS id type x y z vx vy vz
1 1 5.18495 5.63269 5.15162 13.165 -3.83516 -9.5179
5 2 5.69865 5.99006 6.09549 48.0029 -30.5951 -37.6009
6 2 4.98803 6.43315 4.57989 -11.7549 -5.34439 19.5809
3 2 5.10254 3.51781 5.50455 26.5289 61.3822 1.54103
4 2 4.24143 4.12987 3.97539 -29.0292 -5.19759 0.597116
2 1 4.81269 4.36133 4.8355 -15.9971 2.13618 10.8507
ITEM: TIMESTEP
91300
ITEM: NUMBER OF ATOMS
6
ITEM: BOX BOUNDS pp pp pp
0.0000000000000000e+00 1.0000000000000000e+01
0.0000000000000000e+00 1.0000000000000000e+01
0.0000000000000000e+00 1.0000000000000000e+01
ITEM: ATOMS id type x y z vx vy vz
1 1 5.27138 4.80369 4.41079 -15.2391 -13.3761 -0.75339
5 2 4.70724 5.01273 3.58214 -6.33088 57.0107 1.99252
6 2 6.34006 4.53836 4.26076 1.52293 -46.5345 25.7116
3 2 3.75753 5.61678 5.78816 -9.72391 47.4976 26.58
4 2 5.25118 4.95982 6.51721 4.79018 21.9418 -26.3108
2 1 4.72413 5.18556 5.57692 16.0566 6.66953 -1.59414
ITEM: TIMESTEP
91400
ITEM: NUMBER OF ATOMS
6
ITEM: BOX BOUNDS pp pp pp
0.0000000000000000e+00 1.0000000000000000e+01
0.0000000000000000e+00 1.0000000000000000e+01
0.0000000000000000e+00 1.0000000000000000e+01
ITEM: ATOMS id type x y z vx vy vz
1 1 4.32739 4.88911 4.98645 3.09017 14.6428 8.98479
5 2 3.86886 3.8687 4.75626 -28.5356 -29.2379 65.3236
6 2 3.71842 5.74444 5.1986 -2.20939 35.3064 -17.2344
3 2 6.49158 4.32751 4.99445 -20.0379 4.88818 11.2055
4 2 6.10481 6.1008 5.23452 -5.17301 41.6474 -14.4011
2 1 5.6574 5.10738 4.99828 1.60567 -19.0574 -12.7523
ITEM: TIMESTEP
91500
ITEM: NUMBER OF ATOMS
6
ITEM: BOX BOUNDS pp pp pp
0.0000000000000000e+00 1.0000000000000000e+01
0.0000000000000000e+00 1.0000000000000000e+01
0.0000000000000000e+00 1.0000000000000000e+01
ITEM: ATOMS id type x y z vx vy vz
1 1 5.12896 5.63933 5.13183 11.2055 0.584674 -8.00869
5 2 5.89703 6.44564 4.84624 -9.07767 1.36439 -45.6768
6 2 4.44741 6.09002 5.96743 55.0426 -4.57563 34.4074
3 2 5.55334 3.77442 4.23904 0.115406 -13.3996 -36.831
4 2 4.09996 3.75279 5.45543 9.4677 20.3901 9.37185
2 1 4.87143 4.35536 4.82568 -15.8671 -0.901827 11.2588
ITEM: TIMESTEP
91600
ITEM: NUMBER OF ATOMS
6
ITEM: BOX BOUNDS pp pp pp
0.0000000000000000e+00 1.0000000000000000e+01
0.0000000000000000e+00 1.0000000000000000e+01
0.0000000000000000e+00 1.0000000000000000e+01
ITEM: ATOMS id type x y z vx vy vz
1 1 5.2843 4.85391 4.39697 -9.61246 -5.6959 -6.53333
5 2 5.89578 5.63925 3.93683 21.4138 -49.6308 40.1299
6 2 5.08539 3.96501 3.75056 -60.8702 23.1398 16.4317
3 2 4.75533 6.11695 6.22791 22.7788 -10.9391 -24.2314
4 2 4.11792 4.47257 6.17443 -29.5657 30.8935 41.265
2 1 4.72813 5.1298 5.59565 13.4932 6.24446 0.357207
ITEM: TIMESTEP
91700
ITEM: NUMBER OF ATOMS
6
ITEM: BOX BOUNDS pp pp pp
0.0000000000000000e+00 1.0000000000000000e+01
0.0000000000000000e+00 1.0000000000000000e+01
0.0000000000000000e+00 1.0000000000000000e+01
ITEM: ATOMS id type x y z vx vy vz
1 1 4.33013 4.86796 4.96966 1.06096 14.2345 7.00204
5 2 3.87659 4.59574 5.90786 -25.231 44.0064 25.5274
6 2 3.71692 4.76472 4.1482 -3.94279 -26.9597 22.8496
3 2 6.13147 5.14131 5.93667 3.01752 28.476 -2.92103
4 2 6.47903 5.54324 4.26002 -27.7828 -30.3785 -27.3566
2 1 5.65296 5.12823 5.00929 3.46562 -15.5054 -8.52095
ITEM: TIMESTEP
91800
ITEM: NUMBER OF ATOMS
6
ITEM: BOX BOUNDS pp pp pp
0.0000000000000000e+00 1.0000000000000000e+01
0.0000000000000000e+00 1.0000000000000000e+01
0.0000000000000000e+00 1.0000000000000000e+01
ITEM: ATOMS id type x y z vx vy vz
1 1 5.10104 5.62221 5.20426 7.89279 -6.32294 -9.09514
5 2 4.50237 6.48551 4.9665 12.5357 -9.61068 9.33164
6 2 5.73665 6.00924 6.06178 81.0371 25.3823 -18.5707
3 2 4.3743 4.09931 3.79811 -20.3501 -1.6562 31.9904
4 2 5.38571 3.60387 5.271 3.98401 17.3871 -6.46711
2 1 4.89925 4.36114 4.78772 -14.372 3.67924 7.72857
ITEM: TIMESTEP
91900
ITEM: NUMBER OF ATOMS
6
ITEM: BOX BOUNDS pp pp pp
0.0000000000000000e+00 1.0000000000000000e+01
0.0000000000000000e+00 1.0000000000000000e+01
0.0000000000000000e+00 1.0000000000000000e+01
ITEM: ATOMS id type x y z vx vy vz
1 1 5.36472 4.89805 4.43429 -13.9824 -5.27329 -1.87335
5 2 6.32442 4.28409 4.33645 -13.3883 -62.6887 -13.3174
6 2 4.99459 5.4841 3.5627 21.4409 -3.62957 32.5075
3 2 4.92162 4.71242 6.48292 7.24405 34.8268 19.7283
4 2 3.57358 5.46565 5.65348 33.9992 53.0477 32.2588
2 1 4.65108 5.10642 5.56288 9.84552 3.46429 -4.09985
ITEM: TIMESTEP
92000
ITEM: NUMBER OF ATOMS
6
ITEM: BOX BOUNDS pp pp pp
0.0000000000000000e+00 1.0000000000000000e+01
0.0000000000000000e+00 1.0000000000000000e+01
0.0000000000000000e+00 1.0000000000000000e+01
ITEM: ATOMS id type x y z vx vy vz
1 1 4.3541 4.77359 4.88371 0.27802 14.5608 5.76292
5 2 3.62397 5.56738 4.62402 20.2481 -36.4419 9.20458
6 2 3.97566 3.7055 5.04112 -66.1047 10.1495 60.3637
4 2 6.50221 4.56871 5.316 12.5516 -8.93207 -6.75312
3 2 5.90746 6.34431 5.04031 -11.6927 -11.3284 -62.4929
2 1 5.64533 5.21078 5.11465 3.4982 -10.654 -5.78996
ITEM: TIMESTEP
92100
ITEM: NUMBER OF ATOMS
6
ITEM: BOX BOUNDS pp pp pp
0.0000000000000000e+00 1.0000000000000000e+01
0.0000000000000000e+00 1.0000000000000000e+01
0.0000000000000000e+00 1.0000000000000000e+01
ITEM: ATOMS id type x y z vx vy vz
1 1 4.96242 5.64923 5.21748 9.51559 6.43864 -7.17322
5 2 4.74978 5.81564 6.25939 60.4938 24.1109 43.8867
6 2 5.39285 6.61872 4.83108 -7.43595 -33.746 -7.12737
4 2 5.56764 4.11533 3.82645 -64.5672 -8.48306 1.50545
3 2 4.43761 3.59797 5.31976 11.8078 11.4448 18.1334
2 1 5.02537 4.33834 4.76281 -9.54062 -5.87861 2.44028
ITEM: TIMESTEP
92200
ITEM: NUMBER OF ATOMS
6
ITEM: BOX BOUNDS pp pp pp
0.0000000000000000e+00 1.0000000000000000e+01
0.0000000000000000e+00 1.0000000000000000e+01
0.0000000000000000e+00 1.0000000000000000e+01
ITEM: ATOMS id type x y z vx vy vz
1 1 5.37419 5.00439 4.41985 -5.11219 -11.2424 -5.59545
5 2 5.08157 4.40355 3.47208 -43.6927 26.4342 19.1762
6 2 6.3113 5.51306 4.40049 48.0177 -10.361 -13.603
4 2 4.73623 5.7441 6.32974 50.2387 10.3238 9.11579
3 2 3.74 4.48002 5.77827 -11.0669 72.7966 26.3654
2 1 4.637 4.98376 5.58194 1.46193 2.91807 2.15016
ITEM: TIMESTEP
92300
ITEM: NUMBER OF ATOMS
6
ITEM: BOX BOUNDS pp pp pp
0.0000000000000000e+00 1.0000000000000000e+01
0.0000000000000000e+00 1.0000000000000000e+01
0.0000000000000000e+00 1.0000000000000000e+01
ITEM: ATOMS id type x y z vx vy vz
1 1 4.38278 4.7819 4.81806 -1.70737 6.84013 12.4265
5 2 3.9564 4.23884 3.97665 -46.2123 -16.7172 -0.552405
6 2 3.62704 4.9571 5.67733 5.29644 37.2233 -22.7697
4 2 5.82094 5.66747 6.0953 -0.688525 28.986 -14.2566
3 2 6.48647 5.29494 4.44256 31.8164 -75.7965 -53.7297
2 1 5.62658 5.20478 5.166 2.52878 -4.63266 -4.76391
ITEM: TIMESTEP
92400
ITEM: NUMBER OF ATOMS
6
ITEM: BOX BOUNDS pp pp pp
0.0000000000000000e+00 1.0000000000000000e+01
0.0000000000000000e+00 1.0000000000000000e+01
0.0000000000000000e+00 1.0000000000000000e+01
ITEM: ATOMS id type x y z vx vy vz
1 1 4.95547 5.61723 5.2495 15.1652 -1.46853 1.45993
5 2 5.79417 6.18626 5.82592 18.7078 2.27491 -58.5948
6 2 4.08814 6.26812 5.23093 1.98173 27.6339 -22.6408
4 2 4.10612 3.96912 4.15971 -66.6785 -40.3273 33.1235
3 2 5.89871 3.73135 4.99967 -5.28309 19.4254 -25.4975
2 1 5.05421 4.36974 4.73251 -10.8624 0.71266 4.71741
ITEM: TIMESTEP
92500
ITEM: NUMBER OF ATOMS
6
ITEM: BOX BOUNDS pp pp pp
0.0000000000000000e+00 1.0000000000000000e+01
0.0000000000000000e+00 1.0000000000000000e+01
0.0000000000000000e+00 1.0000000000000000e+01
ITEM: ATOMS id type x y z vx vy vz
1 1 5.44197 5.01169 4.48212 -1.93568 -13.7195 -8.19151
5 2 5.20774 5.85919 3.85901 -4.21003 6.38421 -5.28079
6 2 6.05814 4.1627 4.05306 -47.3485 -9.36058 3.98245
4 2 4.64802 4.24666 6.36392 -8.62553 30.7198 -18.4781
3 2 3.78197 5.8354 5.7421 29.315 60.0168 57.3398
2 1 4.58376 4.97955 5.51652 4.52622 6.35466 5.03919
ITEM: TIMESTEP
92600
ITEM: NUMBER OF ATOMS
6
ITEM: BOX BOUNDS pp pp pp
0.0000000000000000e+00 1.0000000000000000e+01
0.0000000000000000e+00 1.0000000000000000e+01
0.0000000000000000e+00 1.0000000000000000e+01
ITEM: ATOMS id type x y z vx vy vz
1 1 4.41522 4.68844 4.8098 -11.4322 5.19768 12.8938
5 2 3.92626 3.83428 5.25794 -16.2687 45.3368 -4.73224
6 2 3.82802 5.27511 4.12822 -3.97843 2.24169 -13.8411
4 2 6.0098 6.15458 4.54199 11.0332 -21.4873 -78.1636
3 2 6.31832 4.8756 5.97156 -18.1556 30.4758 -16.7632
2 1 5.57808 5.29981 5.19877 13.7291 -9.94479 -3.3689
ITEM: TIMESTEP
92700
ITEM: NUMBER OF ATOMS
6
ITEM: BOX BOUNDS pp pp pp
0.0000000000000000e+00 1.0000000000000000e+01
0.0000000000000000e+00 1.0000000000000000e+01
0.0000000000000000e+00 1.0000000000000000e+01
ITEM: ATOMS id type x y z vx vy vz
1 1 4.85963 5.58408 5.30505 15.806 6.35976 0.66323
5 2 4.74167 6.55807 4.87306 5.51062 28.234 -24.742
6 2 4.88467 5.75804 6.33209 25.8924 2.437 -17.2233
4 2 5.37365 3.45984 5.31667 32.3204 43.1475 -20.9364
3 2 5.13772 4.37339 3.56874 -48.1339 -27.037 -26.3044
2 1 5.12902 4.40335 4.6875 -17.1143 -10.2857 6.82297
ITEM: TIMESTEP
92800
ITEM: NUMBER OF ATOMS
6
ITEM: BOX BOUNDS pp pp pp
0.0000000000000000e+00 1.0000000000000000e+01
0.0000000000000000e+00 1.0000000000000000e+01
0.0000000000000000e+00 1.0000000000000000e+01
ITEM: ATOMS id type x y z vx vy vz
1 1 5.46816 5.07303 4.50031 -2.54634 -16.292 -0.278876
5 2 6.44315 5.40422 4.73734 -3.64354 -19.3348 -10.2342
6 2 5.13463 5.26732 3.45677 -35.5911 16.7427 -36.0379
4 2 3.44485 4.77597 5.46049 -17.9849 55.7517 42.8565
3 2 4.89579 4.92673 6.57112 13.4613 -32.4125 -48.504
2 1 4.53889 4.89553 5.4809 6.21854 14.5509 4.63598
ITEM: TIMESTEP
92900
ITEM: NUMBER OF ATOMS
6
ITEM: BOX BOUNDS pp pp pp
0.0000000000000000e+00 1.0000000000000000e+01
0.0000000000000000e+00 1.0000000000000000e+01
0.0000000000000000e+00 1.0000000000000000e+01
ITEM: ATOMS id type x y z vx vy vz
1 1 4.46737 4.65974 4.75063 -4.34819 5.96763 7.72763
5 2 3.49177 5.25376 4.91307 -56.8248 27.7049 0.295969
6 2 4.37039 3.86485 4.00229 -15.8241 -12.9504 49.8167
4 2 6.55956 4.87708 5.23275 -51.3639 -34.9192 4.81841
3 2 5.43513 6.25222 5.79295 22.3624 33.5301 -37.6405
2 1 5.54485 5.31942 5.25447 12.8787 -7.08925 -9.17865
ITEM: TIMESTEP
93000
ITEM: NUMBER OF ATOMS
6
ITEM: BOX BOUNDS pp pp pp
0.0000000000000000e+00 1.0000000000000000e+01
0.0000000000000000e+00 1.0000000000000000e+01
0.0000000000000000e+00 1.0000000000000000e+01
ITEM: ATOMS id type x y z vx vy vz
3 2 4.56654 3.54647 4.79412 22.8972 1.44879 14.739
4 2 6.20143 4.41 4.31725 -9.11323 17.461 -52.9438
2 1 5.17973 4.40948 4.70133 -18.0508 -12.3427 7.30595
1 1 4.81325 5.56956 5.27699 9.4346 9.00843 -2.9068
5 2 3.78415 5.83915 5.66434 41.213 -11.5076 14.2605
6 2 5.53392 6.45372 5.48443 47.6743 32.3292 -28.4764
ITEM: TIMESTEP
93100
ITEM: NUMBER OF ATOMS
6
ITEM: BOX BOUNDS pp pp pp
0.0000000000000000e+00 1.0000000000000000e+01
0.0000000000000000e+00 1.0000000000000000e+01
0.0000000000000000e+00 1.0000000000000000e+01
ITEM: ATOMS id type x y z vx vy vz
3 2 4.10679 3.89026 5.68408 -35.9973 6.61605 8.26618
4 2 4.10189 5.57517 6.16066 43.6689 -36.0613 19.3826
2 1 4.57282 4.88425 5.47876 2.657 14.4718 10.5153
1 1 5.43922 5.11087 4.51004 -4.75461 -3.46737 -11.5183
5 2 5.99009 4.38021 3.83707 -20.9059 -45.5727 -19.4855
6 2 5.66018 6.21204 4.45354 38.2296 -56.1113 3.7891
ITEM: TIMESTEP
93200
ITEM: NUMBER OF ATOMS
6
ITEM: BOX BOUNDS pp pp pp
0.0000000000000000e+00 1.0000000000000000e+01
0.0000000000000000e+00 1.0000000000000000e+01
0.0000000000000000e+00 1.0000000000000000e+01
ITEM: ATOMS id type x y z vx vy vz
3 2 6.21693 5.91726 4.76531 -7.00702 -61.9469 -29.0455
4 2 5.76608 5.38608 6.34235 28.3671 24.2081 9.52597
2 1 5.51357 5.33013 5.25785 7.58929 -6.47608 -8.2221
1 1 4.47708 4.6695 4.74141 -4.09884 13.8186 6.92559
5 2 4.24762 4.8572 3.68422 -9.95641 -59.4468 27.3333
6 2 3.88323 3.84348 5.21879 -52.9963 9.69123 7.63556
ITEM: TIMESTEP
93300
ITEM: NUMBER OF ATOMS
6
ITEM: BOX BOUNDS pp pp pp
0.0000000000000000e+00 1.0000000000000000e+01
0.0000000000000000e+00 1.0000000000000000e+01
0.0000000000000000e+00 1.0000000000000000e+01
ITEM: ATOMS id type x y z vx vy vz
3 2 6.08151 3.88611 5.09849 26.7699 -22.9909 -19.1224
4 2 4.99228 4.24281 3.6964 -17.9112 -38.6479 28.083
2 1 5.22527 4.4292 4.66297 -16.3815 -2.02339 3.03879
1 1 4.75754 5.5515 5.31805 8.35419 5.21557 -5.26285
5 2 4.99351 5.71959 6.44644 62.9193 37.2207 -1.22135
6 2 4.14002 6.38107 4.98669 23.8755 -13.6202 18.7627
ITEM: TIMESTEP
93400
ITEM: NUMBER OF ATOMS
6
ITEM: BOX BOUNDS pp pp pp
0.0000000000000000e+00 1.0000000000000000e+01
0.0000000000000000e+00 1.0000000000000000e+01
0.0000000000000000e+00 1.0000000000000000e+01
ITEM: ATOMS id type x y z vx vy vz
3 2 3.44886 5.00545 5.43109 15.8779 37.4224 61.8776
4 2 4.81311 4.20863 6.3027 26.5032 -18.536 36.5525
2 1 4.48508 4.80923 5.42266 -0.803944 14.1677 -1.73278
1 1 5.49697 5.18888 4.54713 -2.88059 -9.04553 -6.33448
5 2 5.37559 5.85116 3.70286 -3.36634 -25.5383 31.2508
6 2 6.57875 4.95689 4.92514 4.89054 -54.3839 -33.5508
ITEM: TIMESTEP
93500
ITEM: NUMBER OF ATOMS
6
ITEM: BOX BOUNDS pp pp pp
0.0000000000000000e+00 1.0000000000000000e+01
0.0000000000000000e+00 1.0000000000000000e+01
0.0000000000000000e+00 1.0000000000000000e+01
ITEM: ATOMS id type x y z vx vy vz
3 2 6.33389 4.87843 5.87462 43.0962 -43.7685 3.21073
4 2 5.41951 6.49349 5.34054 40.0001 -4.83653 -21.3846
2 1 5.43228 5.389 5.3561 5.61001 2.6261 -8.20583
1 1 4.56082 4.61213 4.65032 -10.1333 3.74165 3.84385
5 2 4.53334 3.45599 4.50297 -58.0369 -9.13411 63.819
6 2 3.79799 5.15816 4.2072 28.8411 -18.1395 6.33252
ITEM: TIMESTEP
93600
ITEM: NUMBER OF ATOMS
6
ITEM: BOX BOUNDS pp pp pp
0.0000000000000000e+00 1.0000000000000000e+01
0.0000000000000000e+00 1.0000000000000000e+01
0.0000000000000000e+00 1.0000000000000000e+01
ITEM: ATOMS id type x y z vx vy vz
3 2 5.95961 4.68237 3.72124 -48.7363 -33.4475 -8.32311
4 2 5.35798 3.42311 5.08048 -3.1205 -37.8313 -0.350226
2 1 5.35187 4.51886 4.68202 -6.29025 -8.68787 -2.23976
1 1 4.62655 5.49063 5.30199 8.52402 15.5305 2.41694
5 2 4.8477 6.46945 5.08785 -12.4305 -26.8791 -38.5216
6 2 4.09429 5.31166 6.30287 37.6694 16.6205 45.0836
ITEM: TIMESTEP
93700
ITEM: NUMBER OF ATOMS
6
ITEM: BOX BOUNDS pp pp pp
0.0000000000000000e+00 1.0000000000000000e+01
0.0000000000000000e+00 1.0000000000000000e+01
0.0000000000000000e+00 1.0000000000000000e+01
ITEM: ATOMS id type x y z vx vy vz
3 2 4.42451 4.93265 6.47223 35.6023 -3.76075 24.8731
4 2 3.66657 4.09818 5.03603 18.6874 38.1153 13.3464
2 1 4.52761 4.69959 5.37674 -12.4901 6.60637 10.8091
1 1 5.47438 5.29386 4.60325 5.27291 -9.24517 -13.3162
5 2 6.26161 5.94314 5.13204 73.0635 -21.1414 -23.1416
6 2 5.6261 5.10372 3.59998 -41.3524 18.231 14.7963
ITEM: TIMESTEP
93800
ITEM: NUMBER OF ATOMS
6
ITEM: BOX BOUNDS pp pp pp
0.0000000000000000e+00 1.0000000000000000e+01
0.0000000000000000e+00 1.0000000000000000e+01
0.0000000000000000e+00 1.0000000000000000e+01
ITEM: ATOMS id type x y z vx vy vz
3 2 5.10016 5.81449 6.30551 55.9449 11.4984 -16.2807
4 2 6.48013 5.3978 5.16082 15.0973 -49.726 -21.9364
2 1 5.38537 5.3725 5.40739 6.50681 5.00233 -2.94257
1 1 4.60922 4.65117 4.60178 -13.4665 -2.33306 7.72612
5 2 3.57381 4.45491 4.71994 23.1144 65.9037 -24.7671
6 2 4.91285 4.05039 3.70625 -11.2242 -59.4834 5.98308
ITEM: TIMESTEP
93900
ITEM: NUMBER OF ATOMS
6
ITEM: BOX BOUNDS pp pp pp
0.0000000000000000e+00 1.0000000000000000e+01
0.0000000000000000e+00 1.0000000000000000e+01
0.0000000000000000e+00 1.0000000000000000e+01
ITEM: ATOMS id type x y z vx vy vz
3 2 5.00448 3.64827 4.08755 -14.1863 -30.394 6.78911
4 2 6.42598 4.47474 4.74528 -4.91556 -23.5929 -45.2618
2 1 5.38538 4.55421 4.70849 -10.6474 -6.41361 2.58625
1 1 4.60456 5.44977 5.30466 14.3976 9.67946 5.86956
5 2 3.54349 5.58246 5.24134 -31.377 6.77867 23.6229
6 2 5.14837 6.24664 5.77103 5.79162 8.29212 -85.9103
ITEM: TIMESTEP
94000
ITEM: NUMBER OF ATOMS
6
ITEM: BOX BOUNDS pp pp pp
0.0000000000000000e+00 1.0000000000000000e+01
0.0000000000000000e+00 1.0000000000000000e+01
0.0000000000000000e+00 1.0000000000000000e+01
ITEM: ATOMS id type x y z vx vy vz
5 2 6.21509 4.72624 4.15518 -32.8254 5.17136 -44.2007
1 1 5.47525 5.3293 4.65445 -1.9399 -18.7021 -7.77658
6 2 5.57495 6.4041 4.55667 55.2822 32.6628 -2.90837
3 2 4.60858 3.66036 5.55177 7.17777 12.3768 -18.4688
2 1 4.52193 4.67361 5.32658 -1.83123 13.1114 9.75524
4 2 3.63752 5.17428 5.96433 15.3026 16.4078 42
ITEM: TIMESTEP
94100
ITEM: NUMBER OF ATOMS
6
ITEM: BOX BOUNDS pp pp pp
0.0000000000000000e+00 1.0000000000000000e+01
0.0000000000000000e+00 1.0000000000000000e+01
0.0000000000000000e+00 1.0000000000000000e+01
ITEM: ATOMS id type x y z vx vy vz
5 2 4.69968 4.93174 3.49343 15.4031 -16.2228 -29.9669
1 1 4.66054 4.60083 4.592 -12.879 -0.322117 12.226
6 2 4.00201 3.69657 4.74563 -53.6138 35.6107 10.3095
3 2 5.92576 6.33855 5.02209 32.3875 1.05626 -7.82714
2 1 5.32443 5.39728 5.43802 13.1005 -4.13295 -8.12562
4 2 5.55414 5.05523 6.38294 3.18315 32.6428 -21.3762
ITEM: TIMESTEP
94200
ITEM: NUMBER OF ATOMS
6
ITEM: BOX BOUNDS pp pp pp
0.0000000000000000e+00 1.0000000000000000e+01
0.0000000000000000e+00 1.0000000000000000e+01
0.0000000000000000e+00 1.0000000000000000e+01
ITEM: ATOMS id type x y z vx vy vz
5 2 4.733 5.61792 6.41351 18.2008 33.2837 -33.6832
1 1 4.54319 5.39375 5.34116 12.1797 14.3648 3.23346
6 2 3.84918 6.0156 4.6818 -18.3136 -19.5223 15.2307
3 2 6.18133 4.06338 5.20136 -15.1984 8.37968 -61.4817
2 1 5.42918 4.59416 4.67511 -9.11216 -13.5784 4.61313
4 2 5.56824 4.4467 3.51132 -21.2424 -31.5117 -13.5665
ITEM: TIMESTEP
94300
ITEM: NUMBER OF ATOMS
6
ITEM: BOX BOUNDS pp pp pp
0.0000000000000000e+00 1.0000000000000000e+01
0.0000000000000000e+00 1.0000000000000000e+01
0.0000000000000000e+00 1.0000000000000000e+01
ITEM: ATOMS id type x y z vx vy vz
5 2 5.39494 6.21313 4.02072 10.1849 -5.54554 10.2728
1 1 5.49922 5.37214 4.70672 3.5733 -11.1109 -10.0623
6 2 6.47157 5.27336 5.06039 7.05436 -8.62494 -70.9866
3 2 3.40048 4.65365 4.91546 -28.7552 33.0873 10.8286
2 1 4.4957 4.62269 5.28852 -0.160457 9.10896 18.6346
4 2 4.79608 3.92107 6.06203 -29.1518 4.93882 -52.2635
ITEM: TIMESTEP
94400
ITEM: NUMBER OF ATOMS
6
ITEM: BOX BOUNDS pp pp pp
0.0000000000000000e+00 1.0000000000000000e+01
0.0000000000000000e+00 1.0000000000000000e+01
0.0000000000000000e+00 1.0000000000000000e+01
ITEM: ATOMS id type x y z vx vy vz
5 2 4.94523 3.58576 4.45305 -48.0897 -34.9177 29.5169
1 1 4.72783 4.5869 4.52528 -9.81873 -0.54161 8.54703
6 2 4.16526 5.034 3.65918 -3.00003 8.98955 -11.018
3 2 5.97341 4.9852 6.17384 -41.4698 8.67603 -27.9626
2 1 5.27818 5.41195 5.46875 13.3829 -1.90727 -8.4098
4 2 4.8469 6.40832 5.7869 50.0888 46.4331 7.82853
ITEM: TIMESTEP
94500
ITEM: NUMBER OF ATOMS
6
ITEM: BOX BOUNDS pp pp pp
0.0000000000000000e+00 1.0000000000000000e+01
0.0000000000000000e+00 1.0000000000000000e+01
0.0000000000000000e+00 1.0000000000000000e+01
ITEM: ATOMS id type x y z vx vy vz
5 2 4.19802 6.29087 4.7154 -22.5608 20.8422 -22.9434
1 1 4.49031 5.32674 5.32209 9.91772 7.58715 2.4162
6 2 3.8831 4.95995 6.09461 2.89615 45.6784 54.0676
3 2 6.15664 5.11132 3.8903 -25.337 -20.0134 -73.129
2 1 5.50616 4.66955 4.70307 -3.79685 -12.2405 2.24648
4 2 5.80667 3.68165 5.00176 -27.9352 8.9424 -13.5561
ITEM: TIMESTEP
94600
ITEM: NUMBER OF ATOMS
6
ITEM: BOX BOUNDS pp pp pp
0.0000000000000000e+00 1.0000000000000000e+01
0.0000000000000000e+00 1.0000000000000000e+01
0.0000000000000000e+00 1.0000000000000000e+01
ITEM: ATOMS id type x y z vx vy vz
5 2 6.22077 5.95446 5.33059 47.2802 -40.6301 -48.2044
1 1 5.45014 5.46275 4.8075 4.40161 -3.13384 -7.05536
6 2 5.56213 5.68828 3.6315 1.7973 3.48068 -42.8833
3 2 4.39497 4.28036 6.26885 2.8359 -4.47542 -3.66355
2 1 4.53665 4.5404 5.22777 -4.48711 3.37439 15.1867
4 2 3.982 4.03899 4.3507 -50.8946 38.7584 -2.14233
ITEM: TIMESTEP
94700
ITEM: NUMBER OF ATOMS
6
ITEM: BOX BOUNDS pp pp pp
0.0000000000000000e+00 1.0000000000000000e+01
0.0000000000000000e+00 1.0000000000000000e+01
0.0000000000000000e+00 1.0000000000000000e+01
ITEM: ATOMS id type x y z vx vy vz
5 2 3.67433 4.48161 4.0448 -48.8592 17.3375 2.75225
1 1 4.79849 4.65096 4.45803 -5.20311 -6.58177 0.237591
6 2 5.53977 4.00794 3.99782 -53.4768 -22.7125 7.59991
3 2 4.50833 5.96288 6.22668 44.9063 62.3487 -27.643
2 1 5.2058 5.35252 5.53964 11.1288 4.49816 0.700613
4 2 6.22896 5.50567 5.76029 -13.1817 -32.1453 6.11113
ITEM: TIMESTEP
94800
ITEM: NUMBER OF ATOMS
6
ITEM: BOX BOUNDS pp pp pp
0.0000000000000000e+00 1.0000000000000000e+01
0.0000000000000000e+00 1.0000000000000000e+01
0.0000000000000000e+00 1.0000000000000000e+01
ITEM: ATOMS id type x y z vx vy vz
5 2 3.43599 4.79248 5.3257 26.4849 44.2477 47.9878
1 1 4.44451 5.28948 5.24385 -0.325307 4.3948 2.57361
6 2 4.45777 6.43005 5.5789 9.78591 31.0395 -9.56483
3 2 5.49205 3.80575 4.25517 -48.604 -24.1423 59.7391
2 1 5.55994 4.69462 4.77675 1.56339 -7.21513 -6.48198
4 2 6.56366 5.16082 4.59662 -2.41996 -17.5375 -51.5895
ITEM: TIMESTEP
94900
ITEM: NUMBER OF ATOMS
6
ITEM: BOX BOUNDS pp pp pp
0.0000000000000000e+00 1.0000000000000000e+01
0.0000000000000000e+00 1.0000000000000000e+01
0.0000000000000000e+00 1.0000000000000000e+01
ITEM: ATOMS id type x y z vx vy vz
5 2 6.17201 5.25145 4.04351 -15.2325 -6.16081 -46.2192
1 1 5.38526 5.51178 4.82596 10.3779 -0.651108 -7.22482
6 2 5.57479 6.52822 5.21747 4.27892 -48.209 -19.3172
3 2 4.59561 3.48555 4.66942 -61.5218 -11.481 -14.0541
2 1 4.59705 4.49379 5.19037 -7.1839 5.26448 9.27254
4 2 3.87085 4.6679 5.87677 34.4154 10.8774 55.1896
ITEM: TIMESTEP
95000
ITEM: NUMBER OF ATOMS
6
ITEM: BOX BOUNDS pp pp pp
0.0000000000000000e+00 1.0000000000000000e+01
0.0000000000000000e+00 1.0000000000000000e+01
0.0000000000000000e+00 1.0000000000000000e+01
ITEM: ATOMS id type x y z vx vy vz
1 1 4.85776 4.65632 4.44121 -8.26474 -7.52157 1.5868
6 2 4.01857 3.96518 4.4353 -47.9015 28.0476 6.99759
5 2 5.35797 4.8357 3.52515 -46.8 -25.4722 25.1777
4 2 4.5788 5.23335 6.56111 -25.0864 32.4163 17.3193
3 2 5.87491 6.0832 5.60053 59.5133 -42.0682 35.5879
2 1 5.15669 5.33379 5.5487 13.323 8.11542 -8.72695
ITEM: TIMESTEP
95100
ITEM: NUMBER OF ATOMS
6
ITEM: BOX BOUNDS pp pp pp
0.0000000000000000e+00 1.0000000000000000e+01
0.0000000000000000e+00 1.0000000000000000e+01
0.0000000000000000e+00 1.0000000000000000e+01
ITEM: ATOMS id type x y z vx vy vz
1 1 4.43328 5.23878 5.24369 7.35252 9.42373 2.77523
6 2 3.54639 5.16866 4.67709 -18.4351 11.0452 45.1
5 2 4.232 5.89922 6.10018 -4.80255 43.6156 1.11655
4 2 5.56153 4.11432 3.90297 -31.5198 -57.2551 56.4674
3 2 6.57076 4.7446 5.37827 44.2656 -5.52776 -3.87374
2 1 5.57442 4.76732 4.75156 -6.47205 -8.74212 -11.0674
ITEM: TIMESTEP
95200
ITEM: NUMBER OF ATOMS
6
ITEM: BOX BOUNDS pp pp pp
0.0000000000000000e+00 1.0000000000000000e+01
0.0000000000000000e+00 1.0000000000000000e+01
0.0000000000000000e+00 1.0000000000000000e+01
ITEM: ATOMS id type x y z vx vy vz
1 1 5.40598 5.53815 4.90032 4.89214 -7.83969 -11.6506
6 2 6.51251 5.48041 4.55535 4.35275 -18.1595 -42.7937
5 2 5.01249 6.49078 4.65021 7.06337 2.21025 12.997
4 2 4.92653 3.32539 5.21607 -43.7469 -45.9455 -17.4898
3 2 3.55736 4.70253 5.36788 27.7269 -1.07413 46.5838
2 1 4.59348 4.46189 5.11749 -4.50579 13.1241 11.7096
ITEM: TIMESTEP
95300
ITEM: NUMBER OF ATOMS
6
ITEM: BOX BOUNDS pp pp pp
0.0000000000000000e+00 1.0000000000000000e+01
0.0000000000000000e+00 1.0000000000000000e+01
0.0000000000000000e+00 1.0000000000000000e+01
ITEM: ATOMS id type x y z vx vy vz
1 1 4.9364 4.6615 4.39626 -18.3937 -5.77949 3.9642
6 2 4.94569 5.11515 3.46207 12.4181 -17.056 11.8102
5 2 4.63324 3.54425 4.53361 -18.993 -5.64387 -3.42962
4 2 5.38938 6.43754 5.69288 56.2555 -27.5679 4.24289
3 2 4.88084 4.77104 6.58627 -40.1124 5.45635 16.8097
2 1 5.07647 5.34955 5.58084 17.5907 9.54007 -6.43424
ITEM: TIMESTEP
95400
ITEM: NUMBER OF ATOMS
6
ITEM: BOX BOUNDS pp pp pp
0.0000000000000000e+00 1.0000000000000000e+01
0.0000000000000000e+00 1.0000000000000000e+01
0.0000000000000000e+00 1.0000000000000000e+01
ITEM: ATOMS id type x y z vx vy vz
1 1 4.39111 5.1941 5.22711 2.79864 15.0296 8.17015
6 2 3.92973 5.14525 6.28997 2.03932 36.52 7.27852
5 2 3.71097 5.36385 4.49628 -4.68962 -6.64003 35.852
4 2 6.38526 4.554 5.57009 5.5875 34.0908 5.93498
3 2 5.81522 4.76443 3.65803 -10.3491 -44.6225 20.567
2 1 5.62242 4.82033 4.77184 -2.17663 -16.6533 -14.0137
ITEM: TIMESTEP
95500
ITEM: NUMBER OF ATOMS
6
ITEM: BOX BOUNDS pp pp pp
0.0000000000000000e+00 1.0000000000000000e+01
0.0000000000000000e+00 1.0000000000000000e+01
0.0000000000000000e+00 1.0000000000000000e+01
ITEM: ATOMS id type x y z vx vy vz
1 1 5.37763 5.5532 4.9388 7.37338 -1.76466 -18.3896
6 2 4.91877 6.32685 4.47382 26.8586 18.6461 41.9155
5 2 6.41637 5.76039 5.37398 34.8076 -10.7584 -13.5337
4 2 3.67584 4.34131 4.57903 -5.65554 10.4793 73.3971
3 2 5.04862 3.50936 5.39455 -27.0946 -8.12722 -9.55077
2 1 4.61758 4.45197 5.07635 -9.80003 0.90533 10.6498
ITEM: TIMESTEP
95600
ITEM: NUMBER OF ATOMS
6
ITEM: BOX BOUNDS pp pp pp
0.0000000000000000e+00 1.0000000000000000e+01
0.0000000000000000e+00 1.0000000000000000e+01
0.0000000000000000e+00 1.0000000000000000e+01
ITEM: ATOMS id type x y z vx vy vz
1 1 4.98306 4.68865 4.40384 -15.2371 -2.70936 -1.34651
6 2 5.5515 3.721 4.21287 -25.7033 -61.0253 -18.2862
5 2 4.73519 5.14422 3.52383 8.38088 -12.5003 18.7409
4 2 5.14321 4.85731 6.58489 -19.8378 22.9467 24.4911
3 2 4.69532 6.30712 5.66904 65.745 29.9424 -11.3412
2 1 5.00664 5.30883 5.5971 12.8383 4.44117 0.204802
ITEM: TIMESTEP
95700
ITEM: NUMBER OF ATOMS
6
ITEM: BOX BOUNDS pp pp pp
0.0000000000000000e+00 1.0000000000000000e+01
0.0000000000000000e+00 1.0000000000000000e+01
0.0000000000000000e+00 1.0000000000000000e+01
ITEM: ATOMS id type x y z vx vy vz
1 1 4.36406 5.10006 5.16122 3.36097 9.112 2.37393
6 2 3.67159 5.7567 4.68177 18.9652 5.23997 32.6974
5 2 3.86029 4.50175 5.99078 -14.7982 24.7184 78.1808
4 2 6.15248 5.44605 4.03444 28.0842 -63.1715 -56.2128
3 2 6.36106 4.32553 5.52671 2.59335 9.50609 18.5486
2 1 5.63234 4.89738 4.81932 -6.28514 -7.1225 -8.51805
ITEM: TIMESTEP
95800
ITEM: NUMBER OF ATOMS
6
ITEM: BOX BOUNDS pp pp pp
0.0000000000000000e+00 1.0000000000000000e+01
0.0000000000000000e+00 1.0000000000000000e+01
0.0000000000000000e+00 1.0000000000000000e+01
ITEM: ATOMS id type x y z vx vy vz
1 1 5.31315 5.58462 5.02642 4.53794 -4.21453 -10.1888
6 2 5.89687 5.98253 5.93563 72.0785 2.40625 -4.12331
5 2 5.12275 6.35786 4.24606 15.3721 -8.05336 15.7967
4 2 4.83897 3.69554 5.90235 -9.10876 14.1078 2.87793
3 2 3.9265 4.10463 4.2495 -58.4024 1.46601 75.9447
2 1 4.70509 4.40355 4.94575 -6.21125 3.38148 2.59435
ITEM: TIMESTEP
95900
ITEM: NUMBER OF ATOMS
6
ITEM: BOX BOUNDS pp pp pp
0.0000000000000000e+00 1.0000000000000000e+01
0.0000000000000000e+00 1.0000000000000000e+01
0.0000000000000000e+00 1.0000000000000000e+01
ITEM: ATOMS id type x y z vx vy vz
1 1 5.13333 4.7567 4.39293 -11.714 -5.53281 -3.83983
6 2 4.29393 4.85822 3.66219 18.4606 -6.70392 6.06007
5 2 5.9532 4.02903 4.08006 -40.7397 -61.9988 6.73094
4 2 4.12631 5.99816 5.68664 74.2779 24.8524 31.5799
3 2 5.56606 5.09768 6.56698 -4.84825 6.04895 1.47811
2 1 4.87196 5.24468 5.60757 7.75715 8.70511 -0.00782583
ITEM: TIMESTEP
96000
ITEM: NUMBER OF ATOMS
6
ITEM: BOX BOUNDS pp pp pp
0.0000000000000000e+00 1.0000000000000000e+01
0.0000000000000000e+00 1.0000000000000000e+01
0.0000000000000000e+00 1.0000000000000000e+01
ITEM: ATOMS id type x y z vx vy vz
2 1 5.67468 4.99058 4.92385 2.25829 -3.22656 -11.2
3 2 6.22328 5.808 4.53056 -2.26505 -77.2468 -40.1217
6 2 3.79604 4.08862 5.32072 -29.4157 30.5982 35.6473
4 2 6.2743 3.9885 5.05566 10.0003 -4.32517 13.1769
1 1 4.31721 5.02439 5.06104 -2.39593 7.12283 13.3309
5 2 3.80544 5.93606 5.27498 23.3205 4.54557 -34.0946
ITEM: TIMESTEP
96100
ITEM: NUMBER OF ATOMS
6
ITEM: BOX BOUNDS pp pp pp
0.0000000000000000e+00 1.0000000000000000e+01
0.0000000000000000e+00 1.0000000000000000e+01
0.0000000000000000e+00 1.0000000000000000e+01
ITEM: ATOMS id type x y z vx vy vz
2 1 4.79142 4.34836 4.90939 -15.3361 0.157334 -3.29262
3 2 4.34573 3.9754 5.89653 36.0492 -1.51718 45.1699
6 2 5.71015 6.14255 4.30159 -7.15252 -5.44661 -32.6856
4 2 4.70418 3.81992 3.99203 -21.7722 3.53441 54.9337
1 1 5.22032 5.63898 5.07281 8.42066 -1.91537 -2.75837
5 2 5.10247 6.21258 6.0238 75.2801 24.3783 4.68621
ITEM: TIMESTEP
96200
ITEM: NUMBER OF ATOMS
6
ITEM: BOX BOUNDS pp pp pp
0.0000000000000000e+00 1.0000000000000000e+01
0.0000000000000000e+00 1.0000000000000000e+01
0.0000000000000000e+00 1.0000000000000000e+01
ITEM: ATOMS id type x y z vx vy vz
2 1 4.79734 5.1989 5.62505 2.93048 9.82467 1.20881
3 2 3.83486 5.15362 6.09697 64.7306 47.688 14.4241
6 2 6.28072 4.96049 3.98267 8.73778 -37.6236 13.062
4 2 5.67195 5.51524 6.17137 42.6345 -17.0354 7.45065
1 1 5.18345 4.80324 4.3757 -9.73971 -11.3427 -0.784548
5 2 4.4438 4.34476 3.74189 -34.9635 25.0598 -39.9923
ITEM: TIMESTEP
96300
ITEM: NUMBER OF ATOMS
6
ITEM: BOX BOUNDS pp pp pp
0.0000000000000000e+00 1.0000000000000000e+01
0.0000000000000000e+00 1.0000000000000000e+01
0.0000000000000000e+00 1.0000000000000000e+01
ITEM: ATOMS id type x y z vx vy vz