LAMMPS data file via write_data, version 2 Aug 2023, timestep = 131000, units = metal

6 atoms
2 atom types

0 10 xlo xhi
0 10 ylo yhi
0 10 zlo zhi

Masses

1 12.0107
2 1.00794

Atoms # atomic

1 1 5.527475830087856 5.381281571768746 4.7170498932084985 0 0 0
6 2 6.616197296392602 5.168974497917662 4.761689096127842 0 0 0
5 2 5.212432528881474 6.463983058673734 4.595808335361465 0 0 0
4 2 4.631129336358291 3.5758512890773764 5.613046774937214 0 0 0
2 1 4.476064765350979 4.592633050959482 5.251899601036335 0 0 0
3 2 3.500504213783293 5.101609144570189 5.401297251976528 0 0 0

Velocities

1 -10.461315439310718 -13.471664786408029 -4.613382249142945
6 -14.63220414826834 -41.84491060052358 -40.69695170748009
5 20.2266670166102 26.192565635210173 -5.399949302748663
4 -22.126186258369025 15.651151868634448 -9.38357693357837
2 7.889376879700516 9.37095034669098 7.7356010566456215
3 47.179165160285976 48.865660149381355 18.27584926423713
