6
Step 1
 C      6.441049      5.745164      6.024902
 H      6.585581      4.819364      6.545616
 H      6.455384      5.645467      4.972406
 C      6.190274      6.908766      6.668064
 H      5.988060      7.762999      6.003966
 H      6.115181      7.009896      7.741632
6
Step 21
 C      6.453759      5.775008      6.001851
 H      6.597113      4.816168      6.463747
 H      6.402287      5.845926      4.934891
 C      6.184392      6.868762      6.684724
 H      5.941858      7.818438      6.174166
 H      6.119387      6.866499      7.758543
6
Step 41
 C      6.447357      5.783675      5.943873
 H      6.731160      4.821760      6.374597
 H      6.525715      5.830978      4.852601
 C      6.160224      6.860498      6.733855
 H      5.975322      7.897060      6.399123
 H      6.190861      6.774115      7.807732
6
Step 61
 C      6.447708      5.850773      5.916510
 H      6.715651      4.870134      6.338314
 H      6.509312      5.928454      4.813114
 C      6.165764      6.802448      6.768883
 H      5.934723      7.800204      6.366811
 H      6.192254      6.598161      7.819183
6
Step 81
 C      6.480064      5.847810      5.880553
 H      6.680238      4.777647      6.126042
 H      6.372744      6.176467      4.815095
 C      6.163650      6.788675      6.801550
 H      5.829803      7.817961      6.575298
 H      6.108996      6.603856      7.861832
6
Step 101
 C      6.464808      5.904129      5.862985
 H      6.773114      4.835802      5.947584
 H      6.445351      6.188302      4.766766
 C      6.154054      6.741462      6.838954
 H      5.891310      7.770838      6.544900
 H      6.179394      6.450432      7.876920
6
Step 121
 C      6.456658      5.933130      5.809618
 H      6.828213      4.926947      6.089566
 H      6.486521      6.378845      4.770278
 C      6.150475      6.695803      6.861035
 H      5.885776      7.767988      6.758162
 H      6.228904      6.350118      7.886335
6
Step 141
 C      6.474453      5.969353      5.804773
 H      6.786549      4.907072      5.773790
 H      6.438735      6.337470      4.732795
 C      6.151664      6.682944      6.884547
 H      5.778466      7.716684      6.926991
 H      6.199548      6.165309      7.847648
6
Step 161
 C      6.483928      6.016200      5.768858
 H      6.759176      4.955190      5.815638
 H      6.333728      6.575618      4.807303
 C      6.155404      6.620864      6.913825
 H      5.782415      7.649908      6.846636
 H      6.170808      6.110527      7.884872
6
Step 181
 C      6.469166      6.049418      5.755018
 H      6.876661      5.048121      5.601039
 H      6.433019      6.646335      4.817374
 C      6.143263      6.575492      6.928208
 H      5.833665      7.621092      7.004848
 H      6.223189      6.104849      7.918930
6
Step 201
 C      6.474894      6.076511      5.732332
 H      6.872444      5.084703      5.558378
 H      6.417778      6.734562      4.855282
 C      6.138529      6.560289      6.953384
 H      5.786116      7.579121      7.110000
 H      6.276760      5.863190      7.790034
6
Step 221
 C      6.479211      6.147124      5.723506
 H      6.781620      5.127058      5.621137
 H      6.342340      6.766993      4.851452
 C      6.159322      6.495191      6.947619
 H      5.735721      7.458551      7.206354
 H      6.191874      5.826131      7.815847
6
Step 241
 C      6.480422      6.162162      5.700482
 H      6.852069      5.222868      5.349157
 H      6.373715      6.855355      4.883371
 C      6.140408      6.473026      6.992685
 H      5.768992      7.460709      7.232891
 H      6.265953      5.709593      7.775252
6
Step 261
 C      6.461960      6.198285      5.710095
 H      6.900364      5.286282      5.386339
 H      6.370398      7.042230      5.073262
 C      6.149640      6.422350      6.957845
 H      5.805764      7.380568      7.309526
 H      6.291731      5.699676      7.772687
6
Step 281
 C      6.468479      6.256308      5.680891
 H      6.854104      5.324283      5.302812
 H      6.368312      7.003632      4.923811
 C      6.155236      6.381131      7.007488
 H      5.741929      7.321935      7.340563
 H      6.256044      5.546292      7.722698
6
Step 301
 C      6.474046      6.282855      5.702194
 H      6.819643      5.353712      5.266579
 H      6.295327      7.095007      5.025144
 C      6.158046      6.361120      6.976524
 H      5.728423      7.198416      7.503185
 H      6.272328      5.458907      7.599468
6
Step 321
 C      6.461438      6.320463      5.681052
 H      6.891539      5.421927      5.217792
 H      6.344830      7.230695      5.113319
 C      6.149361      6.308151      6.993660
 H      5.789284      7.208320      7.481198
 H      6.338133      5.414301      7.608703
6
Step 341
 C      6.451618      6.358076      5.694761
 H      6.892903      5.555887      5.067336
 H      6.364175      7.264865      5.100124
 C      6.161726      6.262769      6.988118
 H      5.778900      7.148526      7.493739
 H      6.290830      5.385912      7.637036
6
Step 361
 C      6.466555      6.386272      5.687131
 H      6.822656      5.497338      5.111899
 H      6.224576      7.364071      5.270021
 C      6.168796      6.249731      6.982397
 H      5.730194      7.042157      7.589698
 H      6.279369      5.261738      7.452141
6
Step 381
 C      6.448495      6.433920      5.704160
 H      6.835751      5.629821      5.012979
 H      6.334841      7.345875      5.099677
 C      6.167360      6.201748      6.982599
 H      5.775976      6.974598      7.647852
 H      6.333795      5.209560      7.415891
6
Step 401
 C      6.435665      6.460320      5.685988
 H      6.888245      5.634000      5.066943
 H      6.326931      7.505092      5.331002
 C      6.169628      6.167050      6.969808
 H      5.820601      6.924122      7.681150
 H      6.362768      5.186082      7.413141
6
Step 421
 C      6.439680      6.472426      5.713923
 H      6.833166      5.825913      4.880787
 H      6.261976      7.517123      5.381428
 C      6.182402      6.145433      6.959909
 H      5.780989      6.888871      7.654754
 H      6.317689      5.120245      7.298161
6
Step 441
 C      6.444219      6.531374      5.697864
 H      6.778399      5.800165      4.914237
 H      6.229696      7.567537      5.365003
 C      6.187701      6.096044      6.961988
 H      5.773823      6.785916      7.712317
 H      6.291368      5.072144      7.319057
6
Step 461
 C      6.423034      6.543595      5.728390
 H      6.826096      5.856022      4.959860
 H      6.293571      7.601195      5.462579
 C      6.183709      6.084216      6.924666
 H      5.846265      6.711912      7.754889
 H      6.404909      5.042015      7.134837
6
Step 481
 C      6.422114      6.575059      5.708090
 H      6.827351      6.012391      4.862058
 H      6.297124      7.643017      5.491282
 C      6.186325      6.045785      6.942835
 H      5.839447      6.639511      7.800512
 H      6.385334      4.990200      7.110377
6
Step 501
 C      6.422864      6.607305      5.739248
 H      6.734886      6.024247      4.893480
 H      6.193811      7.659223      5.614827
 C      6.211680      6.015152      6.896148
 H      5.806246      6.604393      7.730399
 H      6.302387      4.966661      7.139861
6
Step 521
 C      6.418606      6.626284      5.737884
 H      6.739921      6.159884      4.837010
 H      6.220569      7.686219      5.645332
 C      6.202384      5.988414      6.907110
 H      5.841247      6.567624      7.767743
 H      6.396816      4.924633      6.945007
6
Step 541
 C      6.399514      6.656569      5.746200
 H      6.785872      6.171694      4.892314
 H      6.278403      7.725837      5.685936
 C      6.205305      5.972901      6.875621
 H      5.906493      6.344263      7.861710
 H      6.421079      4.911808      6.965196
6
Step 561
 C      6.395798      6.687181      5.772547
 H      6.731953      6.210027      4.892771
 H      6.221072      7.752120      5.735284
 C      6.223753      5.931776      6.862866
 H      5.860551      6.444141      7.759013
 H      6.402135      4.862462      6.792027
6
Step 581
 C      6.405627      6.699235      5.773769
 H      6.674718      6.394443      4.796532
 H      6.158380      7.756558      5.852911
 C      6.227839      5.920482      6.844808
 H      5.850389      6.265775      7.817862
 H      6.363577      4.836819      6.848644
6
Step 601
 C      6.386902      6.730712      5.792109
 H      6.727823      6.384304      4.838277
 H      6.203853      7.800293      5.944246
 C      6.223728      5.884895      6.820833
 H      5.929481      6.296635      7.796091
 H      6.454971      4.818057      6.740924
6
Step 621
 C      6.371400      6.751140      5.822965
 H      6.737334      6.429229      4.851669
 H      6.235646      7.842174      5.895919
 C      6.233973      5.867656      6.795604
 H      5.941145      6.170303      7.811396
 H      6.460970      4.812301      6.626224
6
Step 641
 C      6.383246      6.777776      5.817026
 H      6.659255      6.489568      4.789213
 H      6.134550      7.840251      6.035065
 C      6.245415      5.851877      6.794121
 H      5.892718      5.994016      7.820609
 H      6.407048      4.791717      6.560592
6
Step 661
 C      6.368822      6.784734      5.864609
 H      6.645508      6.601033      4.802112
 H      6.140735      7.853983      6.091505
 C      6.252792      5.822548      6.747479
 H      5.934882      6.139990      7.737116
 H      6.452838      4.780334      6.496759
6
Step 681
 C      6.352495      6.822929      5.855501
 H      6.710684      6.672293      4.801991
 H      6.179136      7.868320      6.219406
 C      6.251452      5.796582      6.732172
 H      6.009448      5.940244      7.786289
 H      6.480884      4.742828      6.542038
6
Step 701
 C      6.350417      6.818361      5.891206
 H      6.647814      6.729733      4.810647
 H      6.147615      7.865862      6.217049
 C      6.265093      5.793725      6.714662
 H      5.967372      5.890237      7.751739
 H      6.475775      4.814559      6.278846
6
Step 721
 C      6.349925      6.863703      5.917529
 H      6.581434      6.696801      4.831531
 H      6.094361      7.885673      6.256859
 C      6.278543      5.760280      6.678895
 H      5.958794      5.807372      7.716978
 H      6.446414      4.750582      6.288294
6
Step 741
 C      6.338106      6.862886      5.925798
 H      6.618495      6.919383      4.846080
 H      6.134190      7.835362      6.384668
 C      6.270926      5.749019      6.655792
 H      6.047554      5.757191      7.718694
 H      6.509892      4.756079      6.255437
6
Step 761
 C      6.324803      6.875802      5.950142
 H      6.621631      6.951467      4.888224
 H      6.147479      7.789683      6.491032
 C      6.280377      5.731822      6.627106
 H      6.057592      5.777760      7.688378
 H      6.529364      4.791099      6.127102
6
Step 781
 C      6.324077      6.911843      5.984618
 H      6.532954      6.936873      4.911122
 H      6.098853      7.846650      6.438295
 C      6.301342      5.714050      6.594182
 H      6.023056      5.565856      7.637507
 H      6.461123      4.736217      6.121866
6
Step 801
 C      6.320741      6.904998      6.001624
 H      6.516110      7.030517      4.946186
 H      6.091339      7.790400      6.528709
 C      6.298587      5.704282      6.580670
 H      6.065778      5.571800      7.634552
 H      6.516010      4.878909      5.894143
6
Step 821
 C      6.301029      6.928160      6.024405
 H      6.555128      7.102901      4.996848
 H      6.135471      7.747698      6.658964
 C      6.301566      5.693085      6.532734
 H      6.148037      5.492226      7.594835
 H      6.550219      4.766292      5.993680
6
Step 841
 C      6.296555      6.937222      6.054457
 H      6.486360      7.222236      5.037526
 H      6.112153      7.765712      6.685002
 C      6.320940      5.666550      6.504561
 H      6.098546      5.526967      7.564891
 H      6.512239      4.783134      5.873509
6
Step 861
 C      6.301938      6.935930      6.076457
 H      6.426194      7.185252      5.040258
 H      6.051094      7.693255      6.784986
 C      6.326971      5.681381      6.485972
 H      6.107016      5.348400      7.503152
 H      6.486495      4.899864      5.732120
6
Step 881
 C      6.283645      6.963090      6.114596
 H      6.458043      7.249049      5.081423
 H      6.097860      7.801881      6.782340
 C      6.324062      5.649001      6.445202
 H      6.212307      5.264289      7.463561
 H      6.552219      4.870473      5.707116
6
Step 901
 C      6.270785      6.945232      6.138430
 H      6.452921      7.333372      5.134163
 H      6.127480      7.704156      6.933946
 C      6.333003      5.656235      6.407584
 H      6.219817      5.339983      7.442634
 H      6.562824      4.933348      5.626797
6
Step 921
 C      6.274379      6.968281      6.152831
 H      6.356614      7.443187      5.161373
 H      6.050035      7.599380      7.054709
 C      6.352617      5.647901      6.383911
 H      6.186619      5.198336      7.362190
 H      6.489719      4.899562      5.605082
6
Step 941
 C      6.265263      6.961173      6.204624
 H      6.337415      7.459367      5.214739
 H      6.042226      7.726668      7.012839
 C      6.356821      5.635678      6.338219
 H      6.238418      5.203651      7.329579
 H      6.520311      4.984516      5.486475
6
Step 961
 C      6.245267      6.965730      6.224077
 H      6.394510      7.400612      5.216748
 H      6.113135      7.585548      7.169161
 C      6.352347      5.650708      6.313053
 H      6.334526      5.071844      7.235355
 H      6.585744      5.080684      5.421720
6
Step 981
 C      6.242125      6.968794      6.247096
 H      6.305600      7.639297      5.367094
 H      6.077436      7.603433      7.181962
 C      6.373056      5.629290      6.278053
 H      6.296460      5.043017      7.198515
 H      6.537610      5.068416      5.364746
6
Step 1001
 C      6.245048      6.963721      6.293192
 H      6.245505      7.552026      5.366653
 H      6.010513      7.431337      7.293990
 C      6.386398      5.650330      6.222574
 H      6.270006      5.107995      7.168260
 H      6.496136      5.061398      5.321135
6
Step 1021
 C      6.230223      6.965487      6.314343
 H      6.259710      7.658118      5.472707
 H      6.066035      7.446626      7.309191
 C      6.378754      5.640882      6.202290
 H      6.389083      4.935733      7.047668
 H      6.574689      5.190539      5.229240
6
Step 1041
 C      6.212987      6.958408      6.355758
 H      6.274136      7.646166      5.526830
 H      6.102386      7.441411      7.332977
 C      6.387133      5.642097      6.160752
 H      6.425671      4.892045      6.968730
 H      6.591498      5.304573      5.145386
6
Step 1061
 C      6.214058      6.947108      6.398194
 H      6.193104      7.624365      5.576922
 H      6.031328      7.260729      7.408587
 C      6.410285      5.670437      6.108346
 H      6.364246      4.914935      6.914885
 H      6.512501      5.263624      5.103689
6
Step 1081
 C      6.208309      6.950213      6.412260
 H      6.119582      7.824475      5.825922
 H      6.026587      7.196574      7.430550
 C      6.415617      5.652491      6.075172
 H      6.416808      4.858469      6.847664
 H      6.539132      5.351540      5.032473
6
Step 1101
 C      6.187343      6.922160      6.466959
 H      6.196531      7.700071      5.749964
 H      6.108819      7.083400      7.498752
 C      6.406993      5.693418      6.026850
 H      6.516174      4.848345      6.727977
 H      6.628717      5.444911      4.989349
6
Step 1121
 C      6.179919      6.903336      6.514235
 H      6.144554      7.762914      5.864928
 H      6.055016      7.168176      7.525191
 C      6.430439      5.691678      5.978211
 H      6.498871      4.782588      6.594490
 H      6.556754      5.607893      4.896861
6
Step 1141
 C      6.186022      6.892709      6.533769
 H      6.041649      7.821772      5.985383
 H      6.004050      6.912782      7.586410
 C      6.443409      5.716964      5.951327
 H      6.483311      4.737090      6.431958
 H      6.495573      5.665208      4.863293
6
Step 1161
 C      6.174385      6.850370      6.586339
 H      6.054988      7.823870      6.068310
 H      6.064470      6.782334      7.659029
 C      6.433677      5.755607      5.877617
 H      6.552854      4.855836      6.475251
 H      6.604157      5.700641      4.806142
6
Step 1181
 C      6.155821      6.825746      6.617460
 H      6.054498      7.898007      6.282765
 H      6.094927      6.789360      7.714598
 C      6.441672      5.766211      5.836921
 H      6.634563      4.779150      6.247290
 H      6.617724      5.851642      4.764482
6
Step 1201
 C      6.159564      6.790181      6.652568
 H      5.993315      7.815430      6.189437
 H      6.039627      6.537063      7.721583
 C      6.464101      5.811365      5.817230
 H      6.579622      4.767601      6.043664
 H      6.477796      6.071819      4.757858
6
Step 1221
 C      6.159307      6.732937      6.702452
 H      5.915057      7.832017      6.455575
 H      5.989289      6.601540      7.797008
 C      6.469718      5.852212      5.737223
 H      6.601451      4.825254      6.027708
 H      6.520902      6.116067      4.677036
6
Step 1241
 C      6.136682      6.715197      6.720088
 H      5.972744      7.838534      6.584862
 H      6.154206      6.217913      7.723956
 C      6.454376      5.890563      5.718704
 H      6.729332      4.859076      5.866154
 H      6.622037      6.200500      4.676359
6
Step 1261
 C      6.140230      6.649830      6.739573
 H      5.929883      7.764932      6.742024
 H      6.105016      6.201321      7.764132
 C      6.470823      5.939529      5.675417
 H      6.687558      4.891743      5.809086
 H      6.515430      6.438363      4.693162
6
Step 1281
 C      6.147178      6.601936      6.799202
 H      5.853206      7.675123      6.719347
 H      6.019546      6.142472      7.802658
 C      6.484181      5.992224      5.632475
 H      6.662120      4.920723      5.522475
 H      6.456762      6.485018      4.635964
6
Step 1301
 C      6.144865      6.559213      6.782137
 H      5.876391      7.611833      6.882886
 H      6.138335      5.909430      7.661174
 C      6.463029      6.030704      5.628665
 H      6.762700      4.995742      5.480555
 H      6.489043      6.743048      4.772442
6
Step 1321
 C      6.129957      6.505373      6.821916
 H      5.898116      7.506694      7.117884
 H      6.182031      5.841815      7.678686
 C      6.462575      6.091470      5.567333
 H      6.812125      5.060993      5.453824
 H      6.550951      6.751616      4.669780
6
Step 1341
 C      6.142114      6.447348      6.825619
 H      5.830347      7.418910      7.067685
 H      6.157445      5.671778      7.566159
 C      6.475529      6.158130      5.578253
 H      6.722406      5.129458      5.296593
 H      6.425932      6.822193      4.687222
6
Step 1361
 C      6.146110      6.405811      6.828864
 H      5.786134      7.322255      7.178249
 H      6.135800      5.624335      7.562423
 C      6.480400      6.183541      5.545923
 H      6.751843      5.192764      5.170697
 H      6.348366      7.081124      4.932783
6
Step 1381
 C      6.137925      6.337418      6.843993
 H      5.862324      7.278021      7.214386
 H      6.213561      5.538237      7.558215
 C      6.453826      6.247788      5.540582
 H      6.865601      5.378453      5.018538
 H      6.486320      7.063257      4.819782
6
Step 1401
 C      6.143257      6.297591      6.824288
 H      5.838469      7.177683      7.336817
 H      6.259988      5.386368      7.396796
 C      6.460327      6.298758      5.530212
 H      6.805922      5.334943      5.154859
 H      6.373310      7.216380      4.967393
6
Step 1421
 C      6.153936      6.263896      6.832766
 H      5.750131      7.039214      7.457213
 H      6.221476      5.291016      7.331408
 C      6.467127      6.337748      5.532387
 H      6.753475      5.487346      4.900016
 H      6.334612      7.219989      4.924518
6
Step 1441
 C      6.161771      6.195868      6.825022
 H      5.796884      7.068852      7.370739
 H      6.251915      5.225844      7.347776
 C      6.444167      6.389897      5.523268
 H      6.826531      5.557108      4.914509
 H      6.354384      7.362849      5.065753
6
Step 1461
 C      6.159525      6.164205      6.793820
 H      5.842656      6.962700      7.493569
 H      6.306891      5.178097      7.288559
 C      6.433980      6.418132      5.532859
 H      6.870828      5.666121      4.858170
 H      6.348312      7.434772      5.199498
6
Step 1481
 C      6.161662      6.127534      6.815323
 H      5.770010      6.856052      7.572597
 H      6.309907      5.059971      7.109937
 C      6.449054      6.464919      5.527318
 H      6.775326      5.753576      4.745143
 H      6.301048      7.444513      5.100009
6
Step 1501
 C      6.184030      6.087727      6.759962
 H      5.765400      6.756162      7.561464
 H      6.280775      5.026945      7.084805
 C      6.434717      6.511972      5.552636
 H      6.751378      5.708695      4.869620
 H      6.256844      7.526023      5.244034
6
Step 1521
 C      6.170262      6.047705      6.782120
 H      5.830864      6.743630      7.600290
 H      6.357992      4.974400      7.003640
 C      6.422185      6.528401      5.536185
 H      6.849401      5.990524      4.663900
 H      6.325216      7.585664      5.304394
6
Step 1541
 C      6.184190      6.020253      6.732718
 H      5.839665      6.626505      7.608931
 H      6.340704      4.962828      7.001990
 C      6.419352      6.562775      5.559262
 H      6.795307      5.980107      4.698399
 H      6.254054      7.634195      5.457604
6
Step 1561
 C      6.197741      5.975646      6.734647
 H      5.793165      6.562445      7.586276
 H      6.334264      4.891751      6.811313
 C      6.420695      6.613047      5.571418
 H      6.714513      6.001039      4.697782
 H      6.210174      7.672424      5.387094
6
Step 1581
 C      6.197616      5.966816      6.714823
 H      5.845995      6.353289      7.680570
 H      6.368246      4.896075      6.738090
 C      6.404918      6.622198      5.577574
 H      6.771561      6.157627      4.653851
 H      6.257140      7.709241      5.461065
6
Step 1601
 C      6.202201      5.918480      6.684805
 H      5.900888      6.421683      7.603693
 H      6.415374      4.867988      6.709911
 C      6.390163      6.661964      5.585874
 H      6.796092      6.165583      4.704336
 H      6.253058      7.748620      5.667402
6
Step 1621
 C      6.214130      5.887742      6.665355
 H      5.863170      6.322269      7.592130
 H      6.370410      4.834229      6.678951
 C      6.397957      6.682695      5.613800
 H      6.693923      6.388564      4.612396
 H      6.202077      7.766981      5.601138
6
Step 1641
 C      6.219050      5.876361      6.653687
 H      5.864644      6.157392      7.627046
 H      6.375246      4.830707      6.512091
 C      6.398679      6.713929      5.608725
 H      6.684470      6.314375      4.647702
 H      6.136450      7.764431      5.797669
6
Step 1661
 C      6.224710      5.840648      6.613520
 H      5.933801      6.151218      7.594335
 H      6.443465      4.814964      6.428054
 C      6.367200      6.734662      5.655402
 H      6.735659      6.435673      4.686337
 H      6.253205      7.827548      5.695563
6
Step 1681
 C      6.228375      5.811962      6.602753
 H      5.937095      6.024277      7.617290
 H      6.439816      4.768355      6.439185
 C      6.371571      6.769978      5.640786
 H      6.700019      6.509913      4.648696
 H      6.189516      7.832853      5.902808
6
Step 1701
 C      6.245026      5.809688      6.564694
 H      5.905337      6.040587      7.561195
 H      6.410654      4.776476      6.283762
 C      6.374612      6.762984      5.682401
 H      6.612905      6.632011      4.644535
 H      6.098025      7.789793      5.984232
6
Step 1721
 C      6.251650      5.758669      6.547403
 H      5.944831      5.922108      7.584662
 H      6.436867      4.712124      6.263861
 C      6.353381      6.819908      5.691789
 H      6.656716      6.655991      4.666532
 H      6.156501      7.875574      5.959631
6
Step 1741
 C      6.249779      5.775481      6.512256
 H      6.002077      5.787591      7.578660
 H      6.511666      4.768502      6.121785
 C      6.338483      6.810614      5.716254
 H      6.685449      6.685097      4.700613
 H      6.191620      7.830268      6.099885
6
Step 1761
 C      6.261755      5.729168      6.495760
 H      5.964792      5.821985      7.555580
 H      6.485288      4.741781      6.021642
 C      6.346281      6.842731      5.734404
 H      6.596771      6.827212      4.676097
 H      6.107025      7.841372      6.129887
6
Step 1781
 C      6.277593      5.725455      6.444107
 H      5.973581      5.704261      7.513591
 H      6.432919      4.668658      6.114082
 C      6.340277      6.861132      5.764235
 H      6.565736      6.866584      4.697742
 H      6.064509      7.813664      6.226168
6
Step 1801
 C      6.272863      5.704616      6.438191
 H      6.023039      5.717335      7.519015
 H      6.546879      4.806308      5.833795
 C      6.320195      6.863138      5.775448
 H      6.624815      6.959038      4.728192
 H      6.140419      7.793576      6.316829
6
Step 1821
 C      6.282593      5.698145      6.397789
 H      6.060859      5.471379      7.461551
 H      6.533132      4.732541      5.893553
 C      6.311861      6.891444      5.807470
 H      6.599976      6.965820      4.748139
 H      6.128061      7.839740      6.303775
6
Step 1841
 C      6.299351      5.673222      6.369966
 H      6.009605      5.577457      7.430925
 H      6.500900      4.795348      5.721694
 C      6.317929      6.901639      5.836687
 H      6.515136      7.010209      4.755419
 H      6.026979      7.786225      6.390805
6
Step 1861
 C      6.302487      5.675422      6.341974
 H      6.053337      5.454307      7.388174
 H      6.524920      4.787593      5.731858
 C      6.305480      6.899032      5.845796
 H      6.526420      7.195389      4.806528
 H      6.059101      7.719360      6.505717
6
Step 1881
 C      6.306618      5.643184      6.304464
 H      6.108929      5.410922      7.351498
 H      6.581367      4.785849      5.690278
 C      6.283038      6.932708      5.875947
 H      6.578835      7.172648      4.835772
 H      6.110681      7.753779      6.555115
6
Step 1901
 C      6.315376      5.654902      6.275734
 H      6.093412      5.367648      7.290006
 H      6.555336      4.926106      5.527410
 C      6.290359      6.911796      5.913497
 H      6.500275      7.194961      4.864130
 H      6.036103      7.736501      6.555284
6
Step 1921
 C      6.324281      5.629183      6.257295
 H      6.103734      5.189009      7.211240
 H      6.530676      4.869298      5.533580
 C      6.290518      6.954354      5.920919
 H      6.451390      7.287266      4.875905
 H      5.987639      7.679914      6.659601
6
Step 1941
 C      6.329914      5.634464      6.202310
 H      6.136175      5.354326      7.213134
 H      6.594988      4.920237      5.464289
 C      6.265768      6.925421      5.961617
 H      6.496818      7.364804      4.975234
 H      6.067908      7.670965      6.715782
6
Step 1961
 C      6.334713      5.621991      6.181974
 H      6.181460      5.174641      7.148771
 H      6.600091      4.924204      5.416508
 C      6.258987      6.957577      5.973656
 H      6.488464      7.394047      4.988284
 H      6.044516      7.590317      6.827240
6
Step 1981
 C      6.347202      5.625193      6.156859
 H      6.158947      5.089382      7.073311
 H      6.560189      5.014105      5.294456
 C      6.266824      6.945045      6.006852
 H      6.383345      7.454359      5.041284
 H      5.966531      7.639401      6.790211
6
Step 2001
 C      6.356517      5.622168      6.108089
 H      6.171625      5.136673      7.063966
 H      6.594089      5.036835      5.222230
 C      6.249001      6.952389      6.044561
 H      6.409540      7.394951      5.058993
 H      5.993599      7.578487      6.903544
6
Step 2021
 C      6.354335      5.623761      6.086199
 H      6.254043      5.003699      6.988777
 H      6.633512      4.993205      5.226527
 C      6.235031      6.954258      6.047165
 H      6.423708      7.607270      5.193943
 H      6.050132      7.497225      6.981380
6
Step 2041
 C      6.366761      5.619748      6.046818
 H      6.216606      5.079204      7.001311
 H      6.603527      5.119568      5.085780
 C      6.240396      6.946756      6.084698
 H      6.352317      7.581225      5.210234
 H      5.977590      7.447037      7.027505
6
Step 2061
 C      6.376379      5.635581      6.011498
 H      6.235522      4.903520      6.846814
 H      6.586234      5.086260      5.060084
 C      6.237789      6.950442      6.125173
 H      6.304711      7.528087      5.215506
 H      5.941294      7.460732      7.051939
6
Step 2081
 C      6.375916      5.616346      5.991907
 H      6.301672      4.884462      6.836403
 H      6.639448      5.278546      4.954987
 C      6.218587      6.944739      6.131374
 H      6.341563      7.667461      5.343591
 H      6.020446      7.426523      7.106974
6
Step 2101
 C      6.383195      5.648437      5.941645
 H      6.325046      4.922269      6.789125
 H      6.644824      5.180015      4.958293
 C      6.208632      6.932576      6.167940
 H      6.345967      7.627688      5.364312
 H      6.018822      7.268758      7.199778
6
Step 2121
 C      6.400495      5.629702      5.907165
 H      6.287143      4.874871      6.714155
 H      6.599251      5.229737      4.882537