6
energy=-373.387538 Lattice="12.718 0.0 0.0 0.0 12.718 0.0 0.0 0.0 12.718" Properties=species:S:1:pos:R:3:Z:I:1:force:R:3
C 6.441055 5.745165 6.024902 6 -0.35005749 0.92563431 1.66890374
H 6.585534 4.819355 6.545614 1 0.19420533 -0.55429887 0.52444937
H 6.455353 5.645460 4.972406 1 0.03352927 0.20585604 -1.26965947
C 6.190283 6.908768 6.668064 6 -0.01682840 -0.74405259 -1.75396824
H 5.988006 7.762987 6.003966 1 0.08223114 0.12705732 0.59652361
H 6.115137 7.009888 7.741630 1 0.05715926 0.04822724 0.23548854
6
energy=-373.384929 Lattice="12.718 0.0 0.0 0.0 12.718 0.0 0.0 0.0 12.718" Properties=species:S:1:pos:R:3:Z:I:1:force:R:3
C 6.460797 5.776337 6.001983 6 -0.52974019 -0.06363999 -0.30333537
H 6.558036 4.810165 6.460414 1 0.35396197 -0.48977853 0.22025011
H 6.371708 5.839262 4.936752 1 0.30507138 -0.29454425 -0.81685960
C 6.187591 6.869579 6.684829 6 -0.56752515 1.04103990 0.09256029
H 5.913836 7.810990 6.174774 1 0.30826829 -0.30995596 0.23200983
H 6.094920 6.861022 7.756569 1 0.12836550 0.11072515 0.59115617
6
energy=-373.411056 Lattice="12.718 0.0 0.0 0.0 12.718 0.0 0.0 0.0 12.718" Properties=species:S:1:pos:R:3:Z:I:1:force:R:3
C 6.462572 5.787394 5.944023 6 -0.61374950 1.25728680 0.63236122
H 6.647579 4.800544 6.372631 1 0.06977105 0.09054095 0.12255481
H 6.461558 5.819106 4.848933 1 0.03391236 0.20602624 0.15327231
C 6.163302 6.860936 6.734245 6 0.36778834 -0.78513011 -1.12720688
H 5.936746 7.889188 6.398113 1 0.13297704 -0.57249921 -0.29175820
H 6.158077 6.764619 7.807823 1 0.00835558 -0.20087683 0.50440915
6
energy=-373.346673 Lattice="12.718 0.0 0.0 0.0 12.718 0.0 0.0 0.0 12.718" Properties=species:S:1:pos:R:3:Z:I:1:force:R:3
C 6.442059 5.850787 5.915167 6 0.99483611 -1.93224969 -0.94239431
H 6.745173 4.878603 6.332798 1 -0.22050671 -0.01955171 -0.32858465
H 6.550805 5.935908 4.815699 1 -0.33293187 0.20961396 0.58025880
C 6.155247 6.798949 6.769926 6 0.07313148 1.69027682 -0.58785745
H 6.006975 7.814401 6.373368 1 -0.26654954 -0.10149231 0.54804543
H 6.238643 6.607442 7.819285 1 -0.24676746 0.14797995 0.74440483
6
energy=-373.348445 Lattice="12.718 0.0 0.0 0.0 12.718 0.0 0.0 0.0 12.718" Properties=species:S:1:pos:R:3:Z:I:1:force:R:3
C 6.455065 5.842670 5.876366 6 0.23208542 1.25074025 0.02449749
H 6.788441 4.807419 6.129235 1 -0.41626036 0.79262899 -0.26142790
H 6.502757 6.225676 4.824103 1 -0.08332951 -0.85243187 0.63555042
C 6.154038 6.783831 6.803195 6 0.27830360 -0.15261565 -0.49932350
H 5.926821 7.845019 6.587687 1 0.03565763 -0.56119149 -0.41031596
H 6.180671 6.614306 7.867215 1 -0.04682445 -0.47464501 0.49699254
6
energy=-373.354010 Lattice="12.718 0.0 0.0 0.0 12.718 0.0 0.0 0.0 12.718" Properties=species:S:1:pos:R:3:Z:I:1:force:R:3
C 6.464733 5.908972 5.859542 6 0.38250998 -1.21489751 -2.18479287
H 6.728335 4.827592 5.924538 1 -0.11744808 0.69982804 0.56746139
H 6.445200 6.197752 4.763187 1 -0.02173766 0.12431961 1.23233525
C 6.168427 6.740754 6.843973 6 -0.59948810 0.53871386 -0.53615613
H 5.833049 7.751346 6.556325 1 0.24279510 -0.19576856 0.48637799
H 6.102877 6.418744 7.871091 1 0.11222668 0.05339054 0.43707191
6
energy=-373.307253 Lattice="12.718 0.0 0.0 0.0 12.718 0.0 0.0 0.0 12.718" Properties=species:S:1:pos:R:3:Z:I:1:force:R:3
C 6.480154 5.948334 5.804582 6 -0.47863948 0.02413085 -0.01711687
H 6.689449 4.890224 6.063426 1 0.16170862 0.39947670 -0.96619041
H 6.366825 6.373242 4.759459 1 0.46492418 -0.83878907 1.12777921
C 6.168947 6.693244 6.869524 6 -0.89732696 0.94796281 -0.39185954
H 5.784589 7.729630 6.767622 1 0.42257396 -0.40397767 0.02733907
H 6.075767 6.279653 7.868103 1 0.33013502 -0.12933327 0.21723266
6
energy=-373.335845 Lattice="12.718 0.0 0.0 0.0 12.718 0.0 0.0 0.0 12.718" Properties=species:S:1:pos:R:3:Z:I:1:force:R:3
C 6.476141 5.983433 5.797795 6 0.06042765 0.01067111 -2.26648151
H 6.792248 4.922893 5.732079 1 -0.23647893 0.41915079 0.75758894
H 6.451199 6.375044 4.730374 1 -0.04627166 0.14177896 1.32738129
C 6.140881 6.666549 6.890839 6 0.25224083 -0.41260579 0.52195334
H 5.865132 7.727752 6.972996 1 0.01206003 -0.33378856 -0.42811778
H 6.189483 6.126038 7.841960 1 -0.04253893 0.17950684 0.07844287
6
energy=-373.339706 Lattice="12.718 0.0 0.0 0.0 12.718 0.0 0.0 0.0 12.718" Properties=species:S:1:pos:R:3:Z:I:1:force:R:3
C 6.468859 6.030395 5.754580 6 0.07325644 0.46679285 0.06214669
H 6.834025 4.994637 5.778112 1 -0.19060373 0.19748503 -0.59466830
H 6.460730 6.674276 4.830225 1 0.03516192 -1.04050203 0.68195269
C 6.128641 6.594312 6.922080 6 0.82480123 0.47138690 -0.28308535
H 5.962270 7.677517 6.912046 1 -0.40765795 -0.17592529 0.36492619
H 6.272466 6.088444 7.885978 1 -0.33839187 0.08091473 -0.22076793
6
energy=-373.404254 Lattice="12.718 0.0 0.0 0.0 12.718 0.0 0.0 0.0 12.718" Properties=species:S:1:pos:R:3:Z:I:1:force:R:3
C 6.467729 6.079548 5.743289 6 0.40586332 -0.00753437 -1.24408623
H 6.812577 5.063725 5.532093 1 -0.06818211 -0.03491766 0.27824653
H 6.477036 6.734659 4.841773 1 -0.24232562 -0.31911887 0.61560687
C 6.141354 6.544155 6.937425 6 0.13158093 0.69320076 1.05396690
H 5.864278 7.592844 7.068482 1 -0.10709886 0.05168744 -0.17404890
H 6.234061 6.036582 7.909514 1 -0.12186781 -0.38324891 -0.51714897
6
energy=-373.369774 Lattice="12.718 0.0 0.0 0.0 12.718 0.0 0.0 0.0 12.718" Properties=species:S:1:pos:R:3:Z:I:1:force:R:3
C 6.482871 6.116361 5.716085 6 -0.75480495 1.44263725 0.75381148
H 6.729976 5.097511 5.446730 1 0.32417520 -0.23472183 0.20951420
H 6.409150 6.824973 4.878252 1 0.04595696 -0.19047054 0.10937635
C 6.155204 6.527978 6.973529 6 0.15173736 -1.65356864 -1.42699773
H 5.702461 7.496267 7.179552 1 0.33786531 0.09369107 0.12722290
H 6.195816 5.742726 7.741966 1 -0.10412975 0.53973407 0.21717661
6
energy=-373.314012 Lattice="12.718 0.0 0.0 0.0 12.718 0.0 0.0 0.0 12.718" Properties=species:S:1:pos:R:3:Z:I:1:force:R:3
C 6.471539 6.197429 5.710948 6 0.06669961 -0.44066066 -0.42993966
H 6.723325 5.177864 5.522684 1 0.53960192 -0.70700451 -0.78895231
H 6.383888 6.906044 4.904745 1 0.07509529 0.26861311 -0.30449442
C 6.175288 6.448248 6.959792 6 -1.34546233 0.27694195 1.81344098
H 5.699801 7.360147 7.295620 1 0.24096910 0.66800342 -0.01226931
H 6.121354 5.680214 7.743211 1 0.42559244 -0.07103038 -0.28904928
6
energy=-373.342659 Lattice="12.718 0.0 0.0 0.0 12.718 0.0 0.0 0.0 12.718" Properties=species:S:1:pos:R:3:Z:I:1:force:R:3
C 6.466385 6.226984 5.679668 6 -0.44716555 0.71237555 2.26428938
H 6.871130 5.344551 5.234751 1 0.10115858 -1.08087197 0.13643517
H 6.412153 7.010641 4.947701 1 -0.19132466 0.81575145 -0.14698390
C 6.145155 6.403753 7.009448 6 0.80697267 -1.08012275 -2.46654793
H 5.842164 7.381431 7.358500 1 -0.23010413 0.11533926 0.27193343
H 6.219550 5.542647 7.694559 1 -0.04054273 0.51580789 -0.05484321
6
energy=-373.242575 Lattice="12.718 0.0 0.0 0.0 12.718 0.0 0.0 0.0 12.718" Properties=species:S:1:pos:R:3:Z:I:1:force:R:3
C 6.453095 6.276317 5.696649 6 0.18657635 0.38247244 -0.17875196
H 6.916063 5.434391 5.252522 1 0.10261331 -0.95187449 -0.74050755
H 6.357805 7.201272 5.196331 1 0.06956330 0.85785227 -1.30830986
C 6.143273 6.339873 6.960501 6 0.41990104 -0.78734383 2.63594261
H 5.959493 7.270290 7.467822 1 -0.65786298 0.59689797 -0.02094011
H 6.287532 5.522886 7.685151 1 -0.12329940 -0.09400268 -0.40143845
6
energy=-373.359268 Lattice="12.718 0.0 0.0 0.0 12.718 0.0 0.0 0.0 12.718" Properties=species:S:1:pos:R:3:Z:I:1:force:R:3
C 6.456642 6.357703 5.671759 6 -0.26289651 -1.14530541 2.41702485
H 6.833783 5.494779 5.151878 1 0.11884007 -0.58944999 -0.24496357
H 6.388186 7.220374 5.053951 1 -0.24518212 1.05813055 -0.18742636
C 6.150388 6.272611 7.009135 6 0.88105803 0.03844676 -2.17182371
H 5.861884 7.186544 7.508334 1 -0.29971577 0.07541925 0.47880249
H 6.303161 5.335287 7.579691 1 -0.19494324 0.56422436 -0.28067982
6
energy=-373.351292 Lattice="12.718 0.0 0.0 0.0 12.718 0.0 0.0 0.0 12.718" Properties=species:S:1:pos:R:3:Z:I:1:force:R:3
C 6.460183 6.400530 5.700731 6 -0.21671690 -0.18046637 -0.71701691
H 6.693996 5.538956 5.086455 1 0.46053736 -0.14584542 -0.10207081
H 6.323269 7.320009 5.173899 1 -0.04954828 0.78914360 -0.33070478
C 6.180314 6.245483 6.974955 6 -0.51471311 -1.55706684 1.28251757
H 5.701180 6.933764 7.655780 1 0.23003779 0.75233566 -0.00407726
H 6.261181 5.233137 7.415923 1 0.09053529 0.34573443 -0.14260223
6
energy=-373.363640 Lattice="12.718 0.0 0.0 0.0 12.718 0.0 0.0 0.0 12.718" Properties=species:S:1:pos:R:3:Z:I:1:force:R:3
C 6.449687 6.457621 5.688378 6 -0.32873429 -0.96725741 1.23420702
H 6.706265 5.635000 4.998793 1 0.24410637 0.61330984 0.11796538
H 6.298771 7.466539 5.351097 1 0.00287295 0.40375450 -0.59076177
C 6.190667 6.177307 6.987045 6 -0.27032135 -0.65826664 -1.23001406
H 5.684772 6.902525 7.620944 1 0.39062490 0.10321187 0.31796701
H 6.282125 5.131132 7.330034 1 -0.03969426 0.50210287 0.14083639
6
energy=-373.352362 Lattice="12.718 0.0 0.0 0.0 12.718 0.0 0.0 0.0 12.718" Properties=species:S:1:pos:R:3:Z:I:1:force:R:3
C 6.418080 6.510049 5.714961 6 1.02862403 -0.53953147 -1.50630603
H 6.841719 5.911493 4.871921 1 -0.39676984 -0.22236304 0.84580510
H 6.351143 7.535666 5.360299 1 -0.41061472 0.36350642 0.49519174
C 6.189134 6.100785 6.956839 6 -0.20420693 0.33705078 0.65340468
H 5.842444 6.851493 7.674076 1 -0.04494137 -0.09570578 0.07435019
H 6.321146 5.098552 7.392025 1 0.02886477 0.16437794 -0.56894440
6
energy=-373.269305 Lattice="12.718 0.0 0.0 0.0 12.718 0.0 0.0 0.0 12.718" Properties=species:S:1:pos:R:3:Z:I:1:force:R:3
C 6.409804 6.558150 5.710007 6 0.56650133 -0.53448953 0.73613564
H 6.922752 5.889932 4.962108 1 -0.90102883 1.03630033 0.26115279
H 6.250780 7.637207 5.648391 1 0.22754588 -0.07612116 -0.91713167
C 6.180017 6.064354 6.935419 6 0.78066615 -0.66771700 0.06540788
H 5.973116 6.703780 7.799893 1 -0.44828450 -0.11500501 -0.20562464
H 6.407595 5.004761 7.149690 1 -0.22488941 0.35498835 0.06148746
6
energy=-373.309567 Lattice="12.718 0.0 0.0 0.0 12.718 0.0 0.0 0.0 12.718" Properties=species:S:1:pos:R:3:Z:I:1:force:R:3
C 6.407093 6.617149 5.762378 6 0.63014801 0.33823915 -2.57701494
H 6.818041 6.101360 4.830348 1 -0.61751514 0.01096165 1.31083572
H 6.240118 7.667003 5.452199 1 -0.05400349 -0.18070806 0.98233180
C 6.197096 6.005196 6.917789 6 0.27623335 -0.23059829 0.26631300
H 5.930012 6.518837 7.846955 1 -0.23900889 -0.05546696 -0.22179689
H 6.386212 4.927854 6.966325 1 0.00478123 0.12062699 0.24430177
6
energy=-373.287819 Lattice="12.718 0.0 0.0 0.0 12.718 0.0 0.0 0.0 12.718" Properties=species:S:1:pos:R:3:Z:I:1:force:R:3
C 6.418010 6.687659 5.769706 6 -0.72929033 -1.40160035 -0.08130760
H 6.656411 6.058885 4.848115 1 -0.02852075 1.41677913 0.81339838
H 6.100199 7.763290 5.730027 1 0.62975669 -0.95069796 -0.18688848
C 6.224173 5.946290 6.886822 6 -0.40354264 0.76446356 -0.10959232
H 5.816760 6.370039 7.815873 1 0.25356443 0.14268450 -0.17150196
H 6.340229 4.862141 6.938263 1 0.27968480 0.02902726 -0.27221009
6
energy=-373.288685 Lattice="12.718 0.0 0.0 0.0 12.718 0.0 0.0 0.0 12.718" Properties=species:S:1:pos:R:3:Z:I:1:force:R:3
C 6.400432 6.691545 5.817173 6 -0.42220887 2.48940505 -2.75064680
H 6.615227 6.429374 4.728643 1 0.14723896 -0.11224159 1.57046179
H 6.129651 7.774641 5.927691 1 0.30504567 -0.71455996 -0.14262228
C 6.235873 5.912598 6.848474 6 -0.34650885 -0.98199602 0.86243501
H 5.804856 6.332181 7.762056 1 0.34924193 -0.29263032 0.13240831
H 6.426990 4.851643 6.755821 1 -0.03210385 -0.38062381 0.33715877
6
energy=-373.335376 Lattice="12.718 0.0 0.0 0.0 12.718 0.0 0.0 0.0 12.718" Properties=species:S:1:pos:R:3:Z:I:1:force:R:3
C 6.364879 6.772506 5.820791 6 0.41873119 -0.87224120 0.62854210
H 6.717936 6.511580 4.775036 1 -0.40414480 0.21206114 1.22828731
H 6.235590 7.863718 6.041821 1 -0.17495907 -0.93972088 -0.25710536
C 6.237586 5.838063 6.820996 6 0.14767142 1.69529562 -0.69451562
H 5.913682 6.126590 7.835247 1 0.09659899 0.14660441 -0.37116369
H 6.506392 4.789546 6.760818 1 -0.08422940 -0.23430994 -0.53010837
6
energy=-373.334012 Lattice="12.718 0.0 0.0 0.0 12.718 0.0 0.0 0.0 12.718" Properties=species:S:1:pos:R:3:Z:I:1:force:R:3
C 6.336170 6.792755 5.893412 6 1.15595852 1.52782412 -1.90923418
H 6.767735 6.518218 4.910347 1 -0.49221080 0.55052140 0.13589370
H 6.243396 7.863736 6.142522 1 -0.27830515 -0.45048382 -0.17752092
C 6.248777 5.822656 6.751572 6 -0.02117408 -1.01327917 2.02671465
H 6.013627 6.011461 7.804412 1 -0.19057699 -0.20555573 -0.09149534
H 6.552133 4.822093 6.474658 1 -0.17219770 -0.40751397 0.01981088
6
energy=-373.388082 Lattice="12.718 0.0 0.0 0.0 12.718 0.0 0.0 0.0 12.718" Properties=species:S:1:pos:R:3:Z:I:1:force:R:3
C 6.346349 6.844139 5.907955 6 -0.26027759 -0.31328863 1.61279657
H 6.671048 6.808000 4.872500 1 -0.03849716 -0.44381900 -0.17313358
H 6.116963 7.871521 6.238023 1 0.07961170 -0.36261065 0.13780300
C 6.265762 5.763483 6.743792 6 0.05943881 1.54497391 -1.28909857
H 5.994617 5.805185 7.810863 1 0.01957177 0.11159573 -0.47642421
H 6.467010 4.803878 6.290306 1 0.14111356 -0.52972528 0.19478794
6
energy=-373.335004 Lattice="12.718 0.0 0.0 0.0 12.718 0.0 0.0 0.0 12.718" Properties=species:S:1:pos:R:3:Z:I:1:force:R:3
C 6.347929 6.876629 5.973970 6 -0.66767277 -0.28839725 0.68285669
H 6.534450 6.872708 4.934077 1 0.39388249 0.20818031 -1.24099011
H 5.992572 7.785557 6.445798 1 0.32529929 0.37982728 0.01602210
C 6.295068 5.743383 6.658803 6 -0.76921034 -0.28708393 1.39455244
H 5.968339 5.736561 7.710801 1 0.18125879 0.27230933 -0.13222267
H 6.383873 4.728587 6.310837 1 0.53686215 -0.28244668 -0.72088179
6
energy=-373.328036 Lattice="12.718 0.0 0.0 0.0 12.718 0.0 0.0 0.0 12.718" Properties=species:S:1:pos:R:3:Z:I:1:force:R:3
C 6.328880 6.902992 6.025347 6 -0.60730837 -0.86383677 1.37568464
H 6.484437 7.037560 5.003485 1 0.52893852 0.13061625 -1.87544523
H 6.039172 7.795515 6.557830 1 0.05962392 0.34725498 0.37136526
C 6.301168 5.694468 6.615614 6 -0.27116982 1.69749289 0.04942487
H 6.012092 5.734058 7.674441 1 0.22483593 -0.83215202 -0.18988073
H 6.496570 4.808002 6.030208 1 0.06325638 -0.48984075 0.26619421
6
energy=-373.245499 Lattice="12.718 0.0 0.0 0.0 12.718 0.0 0.0 0.0 12.718" Properties=species:S:1:pos:R:3:Z:I:1:force:R:3
C 6.298341 6.933229 6.059397 6 -0.27974188 -1.25431872 2.77898810
H 6.523991 7.130725 5.070071 1 0.45980459 0.22760296 -2.18248454
H 6.162309 7.791226 6.693559 1 -0.35013976 0.47466918 0.31137470
C 6.296281 5.690254 6.573995 6 0.63749366 -0.55208052 -0.50929373
H 6.160716 5.282513 7.582477 1 -0.28376720 1.06682037 0.24195332
H 6.605209 4.836471 5.970515 1 -0.18478223 0.03916770 -0.64096979
6
energy=-373.277951 Lattice="12.718 0.0 0.0 0.0 12.718 0.0 0.0 0.0 12.718" Properties=species:S:1:pos:R:3:Z:I:1:force:R:3
C 6.270671 6.944920 6.143284 6 0.35557611 -0.94715240 0.87793826
H 6.533641 7.141623 5.156369 1 0.24018594 0.86314103 -1.96447232
H 6.182081 7.780907 6.815422 1 -0.38605810 0.22364654 0.38539013
C 6.319323 5.654930 6.492094 6 0.02831969 0.96827043 0.73017531
H 6.174711 5.436887 7.559501 1 0.02234187 -0.67792326 -0.41208334
H 6.612670 4.941798 5.721817 1 -0.25996494 -0.42011393 0.38271206
6
energy=-373.410685 Lattice="12.718 0.0 0.0 0.0 12.718 0.0 0.0 0.0 12.718" Properties=species:S:1:pos:R:3:Z:I:1:force:R:3
C 6.271053 6.959985 6.185245 6 -0.00869291 -0.41375713 1.15450328
H 6.420183 7.420352 5.241012 1 0.14933749 0.18047512 -1.12526262
H 6.077321 7.665068 6.994894 1 -0.01603290 -0.02946281 0.10404182
C 6.348350 5.650852 6.436136 6 -0.44156466 -0.69791874 0.46225434
H 6.163318 5.222987 7.444736 1 0.14947273 0.51407599 -0.37430918
H 6.487518 4.849815 5.699238 1 0.16935200 0.44796054 -0.21540975
6
energy=-373.380587 Lattice="12.718 0.0 0.0 0.0 12.718 0.0 0.0 0.0 12.718" Properties=species:S:1:pos:R:3:Z:I:1:force:R:3
C 6.271907 6.973372 6.238881 6 -0.50789145 -0.90699843 1.14513880
H 6.308007 7.516935 5.302961 1 0.15895394 -0.01577630 -0.21819323
H 5.987556 7.516587 7.150733 1 0.34758717 0.33572255 -0.31275847
C 6.367165 5.636520 6.384353 6 -0.57797772 0.18946216 -0.63666833
H 6.183982 5.155798 7.362111 1 0.24948666 0.20385160 -0.39738793
H 6.431513 4.970441 5.504346 1 0.32980747 0.18608012 0.41838203
6
energy=-373.380730 Lattice="12.718 0.0 0.0 0.0 12.718 0.0 0.0 0.0 12.718" Properties=species:S:1:pos:R:3:Z:I:1:force:R:3
C 6.251008 6.953019 6.334682 6 -0.38755705 1.93232065 -1.21047058
H 6.282807 7.479990 5.356801 1 0.06414496 0.00200238 0.53338807
H 6.033067 7.621224 7.189710 1 0.23442873 -0.69720860 -0.13836813
C 6.368437 5.643411 6.299127 6 0.00706540 -0.99651813 0.96459375
H 6.297935 5.096890 7.254280 1 0.09377951 -0.24878218 -0.49575224
H 6.528533 5.105961 5.355677 1 -0.01038264 0.01188468 0.34787411
6
energy=-373.289317 Lattice="12.718 0.0 0.0 0.0 12.718 0.0 0.0 0.0 12.718" Properties=species:S:1:pos:R:3:Z:I:1:force:R:3
C 6.224576 6.977671 6.372110 6 0.30225653 -0.46225948 0.09121201
H 6.289301 7.635307 5.446652 1 -0.16492662 -0.75277326 1.20734206
H 6.128772 7.471182 7.376671 1 -0.11018933 -0.32701627 -0.96525195
C 6.364968 5.630821 6.261554 6 0.74047567 0.67304741 -1.03903701
H 6.450291 4.847990 7.014780 1 -0.34783451 0.50884482 0.64348999
H 6.628514 5.187750 5.283279 1 -0.42086058 0.35014902 0.06332940
6
energy=-373.306242 Lattice="12.718 0.0 0.0 0.0 12.718 0.0 0.0 0.0 12.718" Properties=species:S:1:pos:R:3:Z:I:1:force:R:3
C 6.215084 6.928814 6.427586 6 -0.04853629 3.25719666 0.46677074
H 6.240973 7.766664 5.645984 1 -0.14462928 -1.29393019 0.89528190
H 6.130248 7.303208 7.483423 1 -0.08632999 -0.27019794 -0.87672161
C 6.383144 5.653150 6.185040 6 0.42247883 -0.30040585 -0.56461826
H 6.443338 5.012244 7.050622 1 -0.02993126 -0.79498567 -0.10902976
H 6.576466 5.351379 5.154515 1 -0.11553826 -0.58268953 0.19402535
6
energy=-373.269494 Lattice="12.718 0.0 0.0 0.0 12.718 0.0 0.0 0.0 12.718" Properties=species:S:1:pos:R:3:Z:I:1:force:R:3
C 6.205157 6.942390 6.512627 6 -0.04266594 0.29553926 -1.35885162
H 6.144979 7.791792 5.733169 1 0.04743380 -1.14400494 1.35905011
H 6.046385 7.185141 7.596547 1 0.27934079 -0.13424973 -1.01391577
C 6.417618 5.669857 6.101019 6 -0.50456084 0.15680758 0.92235924
H 6.432364 4.873745 6.840860 1 0.06841608 -0.05609688 0.44921987
H 6.471087 5.205092 5.113797 1 0.15267067 0.89312423 -0.35032745
6
energy=-373.313999 Lattice="12.718 0.0 0.0 0.0 12.718 0.0 0.0 0.0 12.718" Properties=species:S:1:pos:R:3:Z:I:1:force:R:3
C 6.199868 6.903367 6.541115 6 -0.59871779 1.81729455 0.77263608
H 6.058531 7.852715 5.912352 1 0.29394569 -1.53359574 0.60770329
H 6.030810 7.077815 7.623839 1 0.32941666 -0.02451549 -0.42403281
C 6.436161 5.684548 6.076196 6 -0.67975542 0.66455659 -1.36017265
H 6.464847 4.800978 6.687666 1 0.17057019 -0.37702427 0.25739744
H 6.378823 5.607867 4.982689 1 0.48484150 -0.55307708 0.14917088
6
energy=-373.411338 Lattice="12.718 0.0 0.0 0.0 12.718 0.0 0.0 0.0 12.718" Properties=species:S:1:pos:R:3:Z:I:1:force:R:3
C 6.178953 6.874355 6.624639 6 0.01943087 0.92280507 -1.38900965
H 6.052572 7.773572 5.943347 1 0.07728587 -0.71117124 1.15535329
H 6.125422 6.995556 7.707161 1 -0.08493285 0.00798431 -0.08007192
C 6.430102 5.721270 6.000174 6 -0.03989481 0.17189122 -0.17177244
H 6.562068 4.789863 6.528967 1 0.09776832 -0.37676921 0.22347582
H 6.510674 5.679635 4.905199 1 -0.06669549 -0.02005410 0.26064011
6
energy=-373.356952 Lattice="12.718 0.0 0.0 0.0 12.718 0.0 0.0 0.0 12.718" Properties=species:S:1:pos:R:3:Z:I:1:force:R:3
C 6.164204 6.847819 6.673401 6 0.27107160 0.45690387 -1.59468622
H 5.998141 7.863439 6.229049 1 0.13690157 -0.88898218 0.10160647
H 6.207290 6.868030 7.745691 1 -0.26330686 -0.35614792 0.65051168
C 6.424992 5.746874 5.935473 6 0.48620675 0.63073834 0.30467440
H 6.646568 4.799468 6.410155 1 -0.05786220 -0.27292948 0.37590224
H 6.633369 5.705011 4.856162 1 -0.56980315 0.44359892 0.16774969
6
energy=-373.322572 Lattice="12.718 0.0 0.0 0.0 12.718 0.0 0.0 0.0 12.718" Properties=species:S:1:pos:R:3:Z:I:1:force:R:3
C 6.168481 6.807698 6.695788 6 -0.22654726 0.39278617 -0.11178753
H 5.924576 7.826578 6.397034 1 0.12910032 -0.04691701 -0.16719587
H 6.190500 6.579041 7.723815 1 -0.24306455 0.18485062 1.60743942
C 6.435264 5.785914 5.903228 6 0.33989648 0.62691922 -0.85409486
H 6.652575 4.836775 6.372792 1 0.12459678 -0.46269348 -0.38717447
H 6.545026 5.998555 4.836211 1 -0.12183850 -0.70820984 -0.08162384
6
energy=-373.298929 Lattice="12.718 0.0 0.0 0.0 12.718 0.0 0.0 0.0 12.718" Properties=species:S:1:pos:R:3:Z:I:1:force:R:3
C 6.168452 6.771079 6.782816 6 0.07954073 -0.95814902 -3.10096603
H 5.878120 7.745037 6.437961 1 -0.05033864 0.72536888 -0.07529687
H 6.043812 6.583990 7.802372 1 0.16577868 -0.52224336 1.71345122
C 6.458280 5.835971 5.839244 6 -0.25999014 0.03529253 0.51076955
H 6.682762 4.789395 6.045012 1 0.05270354 -0.05352372 0.61959157
H 6.436732 5.949265 4.744871 1 0.01313937 0.78594875 0.33791519
6
energy=-373.294798 Lattice="12.718 0.0 0.0 0.0 12.718 0.0 0.0 0.0 12.718" Properties=species:S:1:pos:R:3:Z:I:1:force:R:3
C 6.162382 6.709990 6.799461 6 -0.02698786 -0.28746908 -1.11456528
H 5.896969 7.708080 6.573159 1 -0.35931141 1.25451669 -0.34857448
H 6.032810 6.470478 7.808738 1 0.29921080 -0.71519091 1.71448892
C 6.470473 5.875930 5.806959 6 -0.49818862 0.44081030 0.12822049
H 6.732011 4.839007 6.009351 1 -0.00853761 -0.09679799 -0.37293981
H 6.309760 6.291929 4.801959 1 0.59515321 -0.60514967 -0.01441053
6
energy=-373.368666 Lattice="12.718 0.0 0.0 0.0 12.718 0.0 0.0 0.0 12.718" Properties=species:S:1:pos:R:3:Z:I:1:force:R:3
C 6.138258 6.676299 6.835666 6 0.69955293 -1.42823700 -1.27106792
H 5.922458 7.702488 6.744063 1 -0.51778044 1.28253299 0.02030813
H 6.195405 6.197861 7.773366 1 -0.06055209 -0.18339743 1.47499666
C 6.461330 5.926155 5.777855 6 0.13102814 0.22047277 -1.00530617
H 6.809305 4.889406 5.821397 1 -0.23941307 0.03512027 0.35591807
H 6.444434 6.309734 4.741148 1 -0.01596965 0.08251550 0.42299460
6
energy=-373.328138 Lattice="12.718 0.0 0.0 0.0 12.718 0.0 0.0 0.0 12.718" Properties=species:S:1:pos:R:3:Z:I:1:force:R:3
C 6.132385 6.614642 6.870898 6 0.81626567 -0.65136991 -1.08573342
H 5.878281 7.640185 6.975989 1 -0.40824314 1.14548796 -0.43441853
H 6.275738 6.173033 7.847047 1 -0.15699424 -0.70791931 0.15984868
C 6.457133 5.980836 5.716382 6 0.24937302 0.04770531 1.22861075
H 6.794067 4.940453 5.831905 1 -0.09337173 0.15332425 -0.34375931
H 6.545099 6.418762 4.708623 1 -0.41020592 0.01359086 0.47103569
6
energy=-373.392626 Lattice="12.718 0.0 0.0 0.0 12.718 0.0 0.0 0.0 12.718" Properties=species:S:1:pos:R:3:Z:I:1:force:R:3
C 6.147536 6.562594 6.880237 6 0.10877471 -0.64586980 1.17457178
H 5.780150 7.567367 6.916375 1 -0.07918643 0.71050173 0.43138822
H 6.280417 5.958435 7.794780 1 -0.40725686 0.45874632 -0.15203612
C 6.460347 6.032405 5.720132 6 0.43711510 -0.58294869 -1.13362899
H 6.755102 4.973691 5.637186 1 0.09649717 0.43601261 -0.15887578
H 6.457991 6.668872 4.829966 1 -0.15697265 -0.38262259 -0.16805205
6
energy=-373.335403 Lattice="12.718 0.0 0.0 0.0 12.718 0.0 0.0 0.0 12.718" Properties=species:S:1:pos:R:3:Z:I:1:force:R:3
C 6.156951 6.520198 6.922236 6 -0.25749051 -1.40598306 0.00238650
H 5.708355 7.506963 7.060256 1 0.31992671 0.10496639 -0.08829997
H 6.134669 5.881169 7.858221 1 0.28877314 0.53647597 -1.12958104
C 6.477095 6.070932 5.682566 6 -0.54331717 0.54875557 0.39785896
H 6.765915 5.068204 5.341511 1 0.14079988 0.05781695 0.73524861
H 6.351359 6.745818 4.830784 1 0.05161185 0.16297977 0.08613099
6
energy=-373.349327 Lattice="12.718 0.0 0.0 0.0 12.718 0.0 0.0 0.0 12.718" Properties=species:S:1:pos:R:3:Z:I:1:force:R:3
C 6.160521 6.448237 6.916953 6 -0.84507748 0.00824502 2.02441403
H 5.785933 7.457520 7.160084 1 0.09007506 -0.32580425 0.05752796
H 6.136312 5.704853 7.795883 1 0.38432569 1.02614755 -1.39035794
C 6.466513 6.146670 5.667450 6 0.09893355 -0.92918449 0.13293024
H 6.820575 5.129081 5.481130 1 -0.01950235 0.14571275 -0.52224233
H 6.299189 6.853842 4.865356 1 0.29114319 0.07365290 -0.29358214
6
energy=-373.310930 Lattice="12.718 0.0 0.0 0.0 12.718 0.0 0.0 0.0 12.718" Properties=species:S:1:pos:R:3:Z:I:1:force:R:3
C 6.136771 6.410316 6.936370 6 0.63934742 -1.11054972 0.88024351
H 5.870868 7.412202 7.342115 1 -0.15371865 -0.84512067 -0.19473498
H 6.295310 5.495960 7.623629 1 -0.36658507 1.73841048 -0.56667874
C 6.456423 6.191321 5.659674 6 0.31127340 -0.27897929 -0.27126186
H 6.905073 5.245726 5.329196 1 -0.35967496 -0.06037469 0.19803422
H 6.371273 6.901200 4.848304 1 -0.07335003 0.55806965 -0.03087023
6
energy=-373.308523 Lattice="12.718 0.0 0.0 0.0 12.718 0.0 0.0 0.0 12.718" Properties=species:S:1:pos:R:3:Z:I:1:force:R:3
C 6.135429 6.352319 6.935235 6 0.83161774 -0.80439180 1.82426636
H 5.858083 7.272666 7.499443 1 -0.12749595 -0.27395021 -0.98891537
H 6.327273 5.526746 7.720939 1 -0.34470496 0.80861098 -1.51323876
C 6.459134 6.236836 5.635598 6 -0.10267194 -0.10089427 1.08769157
H 6.875265 5.306281 5.233103 1 -0.21097973 0.16129262 -0.00431123
H 6.360669 7.089316 4.981177 1 -0.04760709 0.21279648 -0.39990402
6
energy=-373.313560 Lattice="12.718 0.0 0.0 0.0 12.718 0.0 0.0 0.0 12.718" Properties=species:S:1:pos:R:3:Z:I:1:force:R:3
C 6.158206 6.284468 6.942621 6 -0.04002799 -0.10755549 1.08736864
H 5.761422 7.257588 7.279859 1 0.15190551 -0.64777448 0.85457000
H 6.333269 5.369427 7.594332 1 -0.48454325 1.32663156 -0.60799074
C 6.454825 6.302191 5.659508 6 0.30116896 -1.19173134 -1.09831229
H 6.772123 5.398293 5.122139 1 0.18072914 0.22063526 0.07573036
H 6.327965 7.189744 5.063317 1 -0.10809800 0.39175618 -0.29834074
6
energy=-373.340677 Lattice="12.718 0.0 0.0 0.0 12.718 0.0 0.0 0.0 12.718" Properties=species:S:1:pos:R:3:Z:I:1:force:R:3
C 6.168944 6.256963 6.951528 6 -0.31555223 -1.23118957 0.35755329
H 5.672650 7.016804 7.580594 1 0.51091507 0.29136276 -0.64739395
H 6.251004 5.310103 7.555474 1 0.16631707 0.57585707 -0.85265504
C 6.462264 6.338795 5.635874 6 -0.55796681 -0.07558020 0.84807693
H 6.750026 5.495289 4.991929 1 0.22220466 0.12028195 0.49986601
H 6.299121 7.272617 5.114693 1 -0.02391230 0.32938632 -0.20545854
6
energy=-373.430796 Lattice="12.718 0.0 0.0 0.0 12.718 0.0 0.0 0.0 12.718" Properties=species:S:1:pos:R:3:Z:I:1:force:R:3
C 6.173141 6.203040 6.943293 6 -0.21925664 -0.36381701 -0.09783774
H 5.746366 6.982319 7.576359 1 0.13690466 -0.11851971 0.14888703
H 6.315673 5.181926 7.313466 1 -0.10268993 0.29911413 0.44378764
C 6.438981 6.395673 5.655237 6 0.29090202 -0.46724383 -0.21746252
H 6.816176 5.541832 5.073082 1 -0.05812600 0.38608690 -0.07661739
H 6.318464 7.347387 5.156276 1 -0.04492903 0.25646258 -0.18885692
6
energy=-373.424299 Lattice="12.718 0.0 0.0 0.0 12.718 0.0 0.0 0.0 12.718" Properties=species:S:1:pos:R:3:Z:I:1:force:R:3
C 6.172005 6.136944 6.934179 6 0.00923592 0.87246643 -0.35834262
H 5.852382 6.907025 7.624210 1 -0.31779578 0.14453415 0.26473023
H 6.328132 5.157846 7.349452 1 0.11320935 -0.52799235 0.06988418
C 6.421872 6.449154 5.660105 6 0.81895042 -0.84686028 -0.23883097
H 6.895748 5.699192 5.004746 1 -0.39682692 0.11687935 0.05214715
H 6.336605 7.433166 5.208490 1 -0.22371185 0.23468224 0.22421990
6
energy=-373.368431 Lattice="12.718 0.0 0.0 0.0 12.718 0.0 0.0 0.0 12.718" Properties=species:S:1:pos:R:3:Z:I:1:force:R:3
C 6.169561 6.104314 6.931211 6 0.59025680 0.33964914 -1.47896799
H 5.867031 6.786629 7.703681 1 -0.39291215 0.64122639 0.11726553
H 6.335781 5.126136 7.298475 1 0.22281042 -1.30310543 0.21258308
C 6.432224 6.473745 5.655474 6 -0.16462117 0.16912780 1.22934403
H 6.867785 5.846876 4.861652 1 -0.34314584 0.03704294 0.40395351
H 6.249711 7.524644 5.442063 1 0.09022984 0.11198139 -0.47048188
6
energy=-373.357751 Lattice="12.718 0.0 0.0 0.0 12.718 0.0 0.0 0.0 12.718" Properties=species:S:1:pos:R:3:Z:I:1:force:R:3
C 6.189845 6.048580 6.908346 6 -0.16088432 1.55144795 -0.57041970
H 5.817703 6.755413 7.615899 1 -0.28359288 0.10352657 1.05565560
H 6.348620 5.041723 7.117210 1 0.20787898 -1.76349932 0.72994082
C 6.427360 6.531594 5.704549 6 0.08139553 -0.14203247 -1.54192252
H 6.750695 5.887865 4.875033 1 0.09311565 0.10409170 0.17728952
H 6.223361 7.562896 5.420832 1 0.06401229 0.14070886 0.13995707
6
energy=-373.323800 Lattice="12.718 0.0 0.0 0.0 12.718 0.0 0.0 0.0 12.718" Properties=species:S:1:pos:R:3:Z:I:1:force:R:3
C 6.198481 6.010107 6.906828 6 -0.17040924 1.80688620 -1.40840607
H 5.783232 6.473347 7.787808 1 -0.02993435 0.89010061 0.16679529
H 6.330486 4.989325 7.099369 1 0.46932694 -1.78543188 -0.20323454
C 6.426946 6.588412 5.692976 6 -0.57000935 -1.08871641 1.25168488
H 6.708945 5.917904 4.873062 1 0.21076170 0.32259192 0.00244306
H 6.224813 7.636774 5.452718 1 0.09118990 -0.13548026 0.18381087
6
energy=-373.380429 Lattice="12.718 0.0 0.0 0.0 12.718 0.0 0.0 0.0 12.718" Properties=species:S:1:pos:R:3:Z:I:1:force:R:3
C 6.202478 5.985042 6.880520 6 -0.12353851 0.39031842 -0.08789991
H 5.832307 6.496934 7.759791 1 0.00304984 -0.05188901 0.24894416
H 6.414483 4.953911 6.865813 1 0.06976282 -1.51502465 0.68230905
C 6.406028 6.594936 5.732143 6 0.05107449 1.51521645 -0.84308796
H 6.758129 6.106321 4.826536 1 0.06284192 -0.25403803 0.02897892
H 6.249561 7.674860 5.626730 1 -0.06373101 -0.07691563 -0.03046914
6
energy=-373.400681 Lattice="12.718 0.0 0.0 0.0 12.718 0.0 0.0 0.0 12.718" Properties=species:S:1:pos:R:3:Z:I:1:force:R:3
C 6.213744 5.917922 6.853589 6 -0.19844560 1.73113117 0.06990166
H 5.900545 6.451491 7.766451 1 -0.05444726 -0.24936787 -0.19144294
H 6.393411 4.867422 7.002524 1 0.13091604 -0.51278170 -0.40669533
C 6.386673 6.658251 5.735484 6 0.34538322 -0.67057967 1.02175713
H 6.808842 6.206860 4.843359 1 -0.13213217 0.03970557 -0.34709558
H 6.252332 7.748528 5.764573 1 -0.09327660 -0.33119226 -0.13710366
6
energy=-373.443057 Lattice="12.718 0.0 0.0 0.0 12.718 0.0 0.0 0.0 12.718" Properties=species:S:1:pos:R:3:Z:I:1:force:R:3
C 6.221857 5.900679 6.832498 6 -0.14886492 -0.29268071 0.84275474
H 5.904883 6.319876 7.812482 1 0.08078206 -0.18270786 -0.61724518
H 6.398050 4.814015 6.839973 1 0.02139159 0.31023879 -0.17130861
C 6.385033 6.677096 5.766301 6 0.09139250 0.88367285 0.13607985
H 6.767030 6.358716 4.806397 1 -0.01763984 -0.43669910 -0.25952631
H 6.210072 7.762513 5.826917 1 -0.02921238 -0.27330023 0.07150911
6