6
energy=-373.391855 Lattice="12.718 0.0 0.0 0.0 12.718 0.0 0.0 0.0 12.718" Properties=species:S:1:pos:R:3:Z:I:1:force:R:3
C 6.126380 7.552768 6.206973 6 0.21055910 0.67273219 -0.98563722
H 6.061673 8.625737 5.999587 1 -0.04519488 -0.11393698 -0.03822822
H 5.941797 7.258212 7.210986 1 -0.15621828 -0.33139589 0.97247727
C 6.442256 6.669543 5.266637 6 0.11517368 -0.19310593 -0.68801176
H 6.535055 5.618135 5.445172 1 -0.06908045 -0.78523758 0.64734716
H 6.638451 6.839871 4.205591 1 -0.05764212 0.75484043 0.08056095
6
energy=-373.368592 Lattice="12.718 0.0 0.0 0.0 12.718 0.0 0.0 0.0 12.718" Properties=species:S:1:pos:R:3:Z:I:1:force:R:3
C 6.431193 6.779943 5.409779 6 -0.31266334 -1.21235828 1.46326985
H 6.703664 5.884062 4.894208 1 0.12852388 -0.55023035 -0.66520040
H 6.336896 7.668107 4.871260 1 0.22160868 1.62210912 -0.89704671
C 6.113705 6.681614 6.704268 6 -0.20669113 -0.12465951 -0.16359838
H 5.859530 7.562024 7.294647 1 -0.14856359 -0.07224959 0.10115241
H 6.022316 5.688443 7.165551 1 0.31819995 0.34672585 0.16708737
6
energy=-373.339595 Lattice="12.718 0.0 0.0 0.0 12.718 0.0 0.0 0.0 12.718" Properties=species:S:1:pos:R:3:Z:I:1:force:R:3
C 6.068475 7.071955 6.147646 6 0.39090206 2.62100038 -0.86329993
H 5.857618 7.534945 7.093753 1 -0.08656139 0.21505185 0.64425464
H 5.942023 6.037216 6.122547 1 0.02809755 -1.82410695 -0.38864258
C 6.396799 7.878770 5.113628 6 -0.61833378 -0.78432278 -0.15570406
H 6.542297 7.544224 4.082053 1 0.13362444 -0.45732707 0.16585633
H 6.382266 8.963357 5.142992 1 0.15165560 0.22862934 0.59202212
6
energy=-373.224504 Lattice="12.718 0.0 0.0 0.0 12.718 0.0 0.0 0.0 12.718" Properties=species:S:1:pos:R:3:Z:I:1:force:R:3
C 5.989793 7.296064 5.833391 6 1.23610861 1.10874378 -1.23639606
H 5.972743 8.146943 6.530787 1 -0.50843447 -0.78368566 0.49313434
H 5.953990 6.220675 6.092607 1 -0.38518238 0.73150663 0.14541553
C 6.409125 7.678663 4.600359 6 0.68512081 0.09712143 0.23049288
H 6.670491 6.922712 3.861487 1 -0.21889308 -0.10656356 -0.26142893
H 6.735031 8.722563 4.291357 1 -0.80657569 -1.04682283 0.62997986
6
energy=-373.326932 Lattice="12.718 0.0 0.0 0.0 12.718 0.0 0.0 0.0 12.718" Properties=species:S:1:pos:R:3:Z:I:1:force:R:3
C 6.260998 6.705525 5.813433 6 -0.34473119 -1.79225456 -0.96120760
H 5.983358 6.253528 6.795069 1 0.60036433 0.00324113 -0.77794335
H 6.417133 6.067956 4.880600 1 -0.25418972 0.39281445 1.41693391
C 6.231310 8.014070 5.667357 6 -0.22248389 0.84389940 1.08689093
H 6.299195 8.513337 4.713683 1 0.29163376 0.26013978 -0.25188704
H 6.085458 8.597690 6.589720 1 -0.06979419 0.28825172 -0.50715972
6
energy=-373.299920 Lattice="12.718 0.0 0.0 0.0 12.718 0.0 0.0 0.0 12.718" Properties=species:S:1:pos:R:3:Z:I:1:force:R:3
C 6.094758 6.845607 6.561666 6 0.86886740 0.95585868 -1.03070354
H 5.967701 7.767328 7.168903 1 -0.34372229 -0.89556112 0.17042055
H 6.116235 5.820750 7.004124 1 -0.14524635 0.90054392 -0.26760369
C 6.449664 7.094773 5.272880 6 -0.03970043 0.42933700 0.15704824
H 6.753454 6.305784 4.591460 1 -0.12636621 -0.36660461 -0.08671720
H 6.511590 8.113843 4.770225 1 -0.21366243 -1.01345092 1.04671124
6
energy=-373.319946 Lattice="12.718 0.0 0.0 0.0 12.718 0.0 0.0 0.0 12.718" Properties=species:S:1:pos:R:3:Z:I:1:force:R:3
C 6.155365 6.769427 6.842241 6 -0.76224264 1.83781094 2.00463760
H 5.880447 7.837504 6.640363 1 0.42023631 -0.66837931 0.41971129
H 6.110330 6.455102 7.942972 1 -0.04021054 0.19196693 -1.62198056
C 6.461319 6.003328 5.820841 6 0.04212396 -0.73132254 -0.06031350
H 6.578455 4.943821 6.023071 1 0.41301048 -0.28811031 -0.50454079
H 6.542716 6.437274 4.827981 1 -0.07325284 -0.33264391 -0.22651486
6
energy=-373.329164 Lattice="12.718 0.0 0.0 0.0 12.718 0.0 0.0 0.0 12.718" Properties=species:S:1:pos:R:3:Z:I:1:force:R:3
C 6.298558 5.804244 6.497634 6 0.19476892 1.43009025 0.35788188
H 6.129487 5.523372 7.530106 1 -0.32381731 0.06558220 0.38680681
H 6.607566 4.940485 5.906339 1 -0.10430716 0.34851791 -0.52222434
C 6.279213 7.116350 6.110178 6 0.43968107 -2.30796732 0.52092490
H 6.605834 7.273108 5.091737 1 -0.14941514 0.72068844 -0.33145452
H 6.087330 7.937422 6.816593 1 -0.05833220 -0.25336234 -0.41257596
6
energy=-373.255732 Lattice="12.718 0.0 0.0 0.0 12.718 0.0 0.0 0.0 12.718" Properties=species:S:1:pos:R:3:Z:I:1:force:R:3
C 6.227161 7.581389 6.069277 6 -1.25454446 1.69039149 1.21666026
H 6.127429 8.369439 5.289751 1 0.64776111 -0.55760943 0.33240222
H 5.938695 7.944765 7.104887 1 0.43488801 -0.33507463 -1.04745172
C 6.358737 6.283676 5.838291 6 -0.32970514 0.49119727 -0.93571047
H 6.100884 5.609352 6.642948 1 0.49270137 -0.65370190 -0.04455931
H 6.520419 6.010787 4.785021 1 0.00881015 -0.64611457 0.48688758
6
energy=-373.344598 Lattice="12.718 0.0 0.0 0.0 12.718 0.0 0.0 0.0 12.718" Properties=species:S:1:pos:R:3:Z:I:1:force:R:3
C 6.459793 7.847899 4.213330 6 -0.55684221 -0.91508558 -0.42328976
H 6.456972 7.128449 3.350143 1 0.29814276 1.00294075 0.44386065
H 6.633654 8.934577 4.094899 1 0.20918613 -0.67900518 -0.21485388
C 6.058591 7.369473 5.396195 6 -0.54984983 1.14940118 0.73551087
H 5.927343 8.093551 6.226025 1 0.20867397 -0.40486522 -0.19434520
H 5.668301 6.375602 5.624678 1 0.38961548 -0.14965785 -0.33676642
6
energy=-373.377176 Lattice="12.718 0.0 0.0 0.0 12.718 0.0 0.0 0.0 12.718" Properties=species:S:1:pos:R:3:Z:I:1:force:R:3
C 6.434031 7.910617 4.223059 6 0.38141006 -0.72804386 0.70836668
H 6.572019 7.261998 3.327600 1 -0.11497776 0.73051007 0.43930003
H 6.804230 8.939059 4.247704 1 -0.29072616 0.01909611 -0.45612843
C 6.042204 7.338184 5.376472 6 0.11046650 -0.58918671 -0.09727827
H 5.940900 7.822153 6.359008 1 0.11742699 0.25686316 -0.44542440
H 5.864326 6.251103 5.422520 1 -0.20311370 0.30577997 -0.14539187
6
energy=-373.297423 Lattice="12.718 0.0 0.0 0.0 12.718 0.0 0.0 0.0 12.718" Properties=species:S:1:pos:R:3:Z:I:1:force:R:3
C 6.112397 7.301798 6.432229 6 0.70780104 -1.75046073 0.49042028
H 6.105701 8.335537 6.264064 1 -0.16222901 1.52004705 -1.11550321
H 6.087481 7.116531 7.489063 1 -0.41643982 -0.40270755 0.74651674
C 6.394990 6.280977 5.609044 6 0.14131359 0.38130258 0.93692403
H 6.524013 5.268021 6.020846 1 -0.17505214 0.27212267 -0.24685025
H 6.643020 6.441524 4.580222 1 -0.09816119 -0.02961759 -0.80969701
6
energy=-373.265619 Lattice="12.718 0.0 0.0 0.0 12.718 0.0 0.0 0.0 12.718" Properties=species:S:1:pos:R:3:Z:I:1:force:R:3
C 6.326116 6.015238 5.991509 6 0.50744305 -0.12760291 0.74507589
H 6.338727 5.478303 6.933972 1 -0.09341184 -1.03214593 -0.27672135
H 6.639244 5.613728 5.036922 1 -0.26722626 -0.44797031 -0.11560922
C 6.188755 7.307823 6.188284 6 0.56097654 1.53857083 -1.39441926
H 6.337227 8.055068 5.397753 1 -0.25922138 -0.19575828 -0.10455296
H 6.119968 7.746999 7.150387 1 -0.44726685 0.25652377 1.15189618
6
energy=-373.391219 Lattice="12.718 0.0 0.0 0.0 12.718 0.0 0.0 0.0 12.718" Properties=species:S:1:pos:R:3:Z:I:1:force:R:3
C 6.342852 8.144701 4.704580 6 0.20134632 -0.47192427 0.36868514
H 6.639322 8.650078 3.799905 1 -0.17423504 -0.10584982 -0.65539780
H 6.346768 8.779913 5.567164 1 -0.10937995 0.51326763 0.62144482
C 6.134242 6.833593 4.871771 6 0.48013792 0.62246812 0.40955697
H 6.030057 6.446919 5.899504 1 -0.26675214 -0.08150968 -0.51458455
H 6.220078 6.153250 4.040877 1 -0.13049695 -0.47466095 -0.23156194
6
energy=-373.399176 Lattice="12.718 0.0 0.0 0.0 12.718 0.0 0.0 0.0 12.718" Properties=species:S:1:pos:R:3:Z:I:1:force:R:3
C 6.252213 7.425747 5.934465 6 0.08982618 0.54621172 -0.85193307
H 6.482252 7.911788 4.947989 1 -0.18439759 -0.71056703 0.65836229
H 5.985322 8.178984 6.686695 1 0.07492046 -0.38882358 0.17630376
C 6.278123 6.098994 6.146856 6 0.34560331 1.00239568 -1.08830452
H 6.087928 5.741505 7.141297 1 -0.16041381 -0.59815524 0.37446705
H 6.536526 5.423240 5.304252 1 -0.16489113 0.15468590 0.73128705
6
energy=-373.274487 Lattice="12.718 0.0 0.0 0.0 12.718 0.0 0.0 0.0 12.718" Properties=species:S:1:pos:R:3:Z:I:1:force:R:3
C 6.190925 6.796633 5.233079 6 1.18210718 0.69730424 -1.11008693
H 6.211961 6.080371 6.086255 1 -0.39970553 0.29105783 -0.83172830
H 6.449326 6.491017 4.158615 1 -0.57784145 -0.17751577 1.59664335
C 6.207033 8.128370 5.453955 6 0.43045800 0.01395647 -0.09623800
H 6.451798 8.907370 4.689764 1 -0.48448720 -0.80770749 0.27389570
H 6.117736 8.536234 6.459810 1 -0.15166331 -0.01837826 0.16806439
6
energy=-373.401072 Lattice="12.718 0.0 0.0 0.0 12.718 0.0 0.0 0.0 12.718" Properties=species:S:1:pos:R:3:Z:I:1:force:R:3
C 6.107454 7.332276 6.318929 6 -0.79447504 0.32860933 1.27851847
H 5.889260 8.375536 6.571925 1 0.25636488 0.07398303 -0.30529661
H 5.847142 6.669593 7.174916 1 0.46181982 0.04789352 -0.66798388
C 6.485144 6.912305 5.121105 6 -0.37293981 -0.78449659 -0.37972753
H 6.549874 5.829380 4.944816 1 0.22793411 0.24114394 -0.10301852
H 6.579607 7.556880 4.244863 1 0.22136134 0.09266314 0.17501357
6
energy=-373.354706 Lattice="12.718 0.0 0.0 0.0 12.718 0.0 0.0 0.0 12.718" Properties=species:S:1:pos:R:3:Z:I:1:force:R:3
C 6.137731 6.882606 5.886752 6 0.54308165 -0.89960444 -0.79841449
H 6.038334 6.785551 6.993800 1 -0.14552197 -0.20031530 -0.88461336
H 6.246611 5.962465 5.208887 1 -0.32052938 1.05263096 1.28272480
C 6.294739 8.088609 5.328872 6 0.41345940 0.15181398 -0.27711884
H 6.549681 8.268772 4.258175 1 -0.39499783 -0.31923920 0.67361871
H 6.287721 8.975646 5.959006 1 -0.09679748 0.20514075 0.00551348
6
energy=-373.327556 Lattice="12.718 0.0 0.0 0.0 12.718 0.0 0.0 0.0 12.718" Properties=species:S:1:pos:R:3:Z:I:1:force:R:3
C 6.183854 8.172258 5.634791 6 -0.50074995 1.21007926 1.37127468
H 6.284616 8.871167 4.787359 1 -0.08281889 0.19548780 0.71819962
H 5.928329 8.488398 6.700826 1 0.50954570 0.07727919 -1.48382069
C 6.279423 6.893141 5.359030 6 -0.44882443 -1.76267760 -0.26829738
H 6.116071 6.056664 6.062886 1 0.18936394 0.51619355 -0.07222440
H 6.369832 6.595386 4.321010 1 0.33323063 -0.25011915 -0.27172466
6
energy=-373.378343 Lattice="12.718 0.0 0.0 0.0 12.718 0.0 0.0 0.0 12.718" Properties=species:S:1:pos:R:3:Z:I:1:force:R:3
C 6.415675 6.195643 5.666479 6 -0.08009095 -0.12416072 -0.46887699
H 6.515189 5.142103 5.876813 1 -0.02791809 -0.37478278 0.79726829
H 6.529444 6.328044 4.587812 1 0.06997931 0.57492890 0.02028808
C 6.130855 7.188819 6.513959 6 -0.20901850 0.50329329 -0.89194769
H 6.025682 8.206316 6.065888 1 0.05738809 -0.56432875 0.63135797
H 5.914253 7.058174 7.576507 1 0.19036050 -0.01188159 -0.07726016
6
energy=-373.278241 Lattice="12.718 0.0 0.0 0.0 12.718 0.0 0.0 0.0 12.718" Properties=species:S:1:pos:R:3:Z:I:1:force:R:3
C 6.445681 6.574722 5.346721 6 -0.15409866 -0.49854086 0.02833718
H 6.434933 5.456645 5.605041 1 0.25030787 1.57921743 -0.39041715
H 6.649014 6.848178 4.270904 1 -0.21660583 -0.25439798 1.11876800
C 6.153059 7.486355 6.297514 6 -0.73405305 0.15042661 -0.36724224
H 5.923645 8.561305 6.174470 1 0.65701143 -0.33395363 -0.65449740
H 5.877685 7.232045 7.315503 1 0.19744647 -0.64562555 0.25838371
6
energy=-373.198225 Lattice="12.718 0.0 0.0 0.0 12.718 0.0 0.0 0.0 12.718" Properties=species:S:1:pos:R:3:Z:I:1:force:R:3
C 6.024467 7.714065 5.825350 6 0.58560824 0.62981222 0.29113136
H 6.126094 8.766281 5.882151 1 -0.37659695 1.27672950 0.83362269
H 5.937372 7.104185 6.688875 1 -0.55800280 -0.49039766 0.84701146
C 6.380093 7.255489 4.662262 6 0.77034368 -0.65126244 -2.31759045
H 6.481670 6.235745 4.383961 1 -0.11814639 -1.35331449 0.18972441
H 6.700878 7.855892 3.809088 1 -0.30501584 0.59217536 0.16553237
6
energy=-373.208215 Lattice="12.718 0.0 0.0 0.0 12.718 0.0 0.0 0.0 12.718" Properties=species:S:1:pos:R:3:Z:I:1:force:R:3
C 6.332990 8.171447 4.922995 6 -0.95230850 -2.03610382 1.92656497
H 6.355167 8.629161 3.981903 1 0.61982142 0.22632975 -1.84587650
H 6.255959 8.949801 5.695473 1 -0.00611357 -0.53503512 0.29206313
C 6.147629 6.817604 5.141336 6 0.04126212 3.54559390 -0.26833080
H 5.804327 6.504629 6.120089 1 0.38415600 -0.49265097 0.17416100
H 6.185824 6.172542 4.287255 1 -0.08588673 -0.71612679 -0.27703399
6
energy=-373.351582 Lattice="12.718 0.0 0.0 0.0 12.718 0.0 0.0 0.0 12.718" Properties=species:S:1:pos:R:3:Z:I:1:force:R:3
C 6.364233 6.539463 5.540292 6 -0.21381103 0.69028461 -0.55555974
H 6.270848 5.664485 6.172639 1 0.18062784 0.10975533 0.61633963
H 6.514148 6.266957 4.492849 1 0.05628097 0.16313404 -0.07433939
C 6.203603 7.829049 5.893144 6 -0.66384646 -0.07610728 -1.15291022
H 6.080694 8.653893 5.143990 1 0.57762394 -0.79209832 0.33703896
H 5.945739 8.166369 6.878246 1 0.06261669 -0.10548987 0.82358355
6
energy=-373.322045 Lattice="12.718 0.0 0.0 0.0 12.718 0.0 0.0 0.0 12.718" Properties=species:S:1:pos:R:3:Z:I:1:force:R:3
C 6.269867 6.840115 5.522643 6 -0.50276724 -0.28875463 0.70912567
H 6.068129 6.235511 6.373882 1 0.09296344 -1.01076617 0.59618474
H 6.348493 6.435600 4.550310 1 0.31490071 -0.84036156 -0.97992319
C 6.200168 8.136813 5.658792 6 -0.20406449 1.62296067 0.22005214
H 6.284308 8.724546 4.771806 1 0.16847937 0.80217396 -0.62724472
H 5.996659 8.694017 6.576543 1 0.12941966 -0.27337840 0.08492977
6
energy=-373.375887 Lattice="12.718 0.0 0.0 0.0 12.718 0.0 0.0 0.0 12.718" Properties=species:S:1:pos:R:3:Z:I:1:force:R:3
C 6.292536 6.362454 6.008997 6 -0.36147525 -1.99478204 -0.37126139
H 6.085202 5.866952 6.977101 1 0.22026811 0.76858813 -0.07830403
H 6.399227 5.559521 5.223560 1 0.03793563 1.01758628 0.40581550
C 6.284893 7.660924 5.733846 6 0.24753313 0.26880749 -0.92680365
H 6.433067 8.000881 4.673366 1 -0.09117293 -0.14551580 0.99782220
H 6.160575 8.420027 6.504788 1 -0.05651803 0.07668629 -0.01878758
6
energy=-373.308139 Lattice="12.718 0.0 0.0 0.0 12.718 0.0 0.0 0.0 12.718" Properties=species:S:1:pos:R:3:Z:I:1:force:R:3
C 6.276406 6.694979 5.749652 6 -0.47669521 -1.35599306 -0.27466241
H 6.056016 6.091009 6.667467 1 0.38139720 0.74422537 -0.40812847
H 6.390628 5.969315 4.859290 1 0.04228131 1.59057708 0.96986914
C 6.224664 8.040421 5.732374 6 -0.53652842 -0.64669101 0.00716773
H 6.253352 8.609770 4.804426 1 0.31796496 -0.00481928 -0.09979795
H 5.968861 8.629045 6.629044 1 0.27070753 -0.32047024 -0.18402890
6
energy=-373.335004 Lattice="12.718 0.0 0.0 0.0 12.718 0.0 0.0 0.0 12.718" Properties=species:S:1:pos:R:3:Z:I:1:force:R:3
C 6.347929 6.876629 5.973970 6 -0.66767277 -0.28839725 0.68285669
H 6.534450 6.872708 4.934077 1 0.39388249 0.20818031 -1.24099011
H 5.992572 7.785557 6.445798 1 0.32529929 0.37982728 0.01602210
C 6.295068 5.743383 6.658803 6 -0.76921034 -0.28708393 1.39455244
H 5.968339 5.736561 7.710801 1 0.18125879 0.27230933 -0.13222267
H 6.383873 4.728587 6.310837 1 0.53686215 -0.28244668 -0.72088179
6
energy=-373.375738 Lattice="12.718 0.0 0.0 0.0 12.718 0.0 0.0 0.0 12.718" Properties=species:S:1:pos:R:3:Z:I:1:force:R:3
C 6.116609 7.812424 6.084548 6 -0.43948206 2.24193568 -0.02635537
H 6.051205 8.816013 5.589185 1 0.24794245 -0.68821282 0.53976544
H 5.874345 7.775604 7.144142 1 -0.05380911 0.00745929 0.10303240
C 6.398132 6.738398 5.389932 6 0.02181274 -0.97999673 -1.52188487
H 6.285189 5.780683 5.891402 1 0.39849042 -0.37930844 -0.24601155
H 6.614049 6.781484 4.283344 1 -0.17648425 -0.20869196 1.16012474
6
energy=-373.407729 Lattice="12.718 0.0 0.0 0.0 12.718 0.0 0.0 0.0 12.718" Properties=species:S:1:pos:R:3:Z:I:1:force:R:3
C 6.150024 6.362336 6.987154 6 0.06553130 1.09035524 -0.88166636
H 5.816091 7.202564 7.611422 1 0.05060500 0.04949891 -0.36851237
H 6.241896 5.456789 7.550257 1 0.09846509 -0.83919273 0.10283906
C 6.452352 6.468415 5.668491 6 -0.35060925 -0.00157660 1.78111191
H 6.788725 5.560929 5.180078 1 0.10514123 0.07137542 -0.53787362
H 6.385485 7.434417 5.153159 1 0.02996469 -0.37794164 -0.09422483
6
energy=-373.394262 Lattice="12.718 0.0 0.0 0.0 12.718 0.0 0.0 0.0 12.718" Properties=species:S:1:pos:R:3:Z:I:1:force:R:3
C 6.025329 7.585964 6.097829 6 0.11199425 -1.09214010 -1.08610417
H 5.929920 8.520281 6.583762 1 -0.14146580 1.10993780 0.47874541
H 5.771995 6.709981 6.662622 1 -0.12815159 -0.49430933 0.51570658
C 6.411373 7.464124 4.820427 6 0.11241591 -0.41828947 1.02911409
H 6.585798 6.478903 4.361087 1 -0.20670296 0.44581572 -0.04445081
H 6.667213 8.371621 4.318944 1 0.25353358 0.44624818 -0.88465810
6
energy=-373.400222 Lattice="12.718 0.0 0.0 0.0 12.718 0.0 0.0 0.0 12.718" Properties=species:S:1:pos:R:3:Z:I:1:force:R:3
C 6.440492 7.947635 4.270761 6 0.45782947 -0.75767945 -1.73914633
H 6.564781 7.369212 3.336341 1 -0.12872289 0.26650892 0.18780328
H 6.748472 8.980940 4.162572 1 -0.15106013 0.31366864 0.46680417
C 6.037673 7.296515 5.346429 6 0.13849309 -0.02119876 0.83819257
H 5.997933 7.829675 6.298042 1 -0.24708833 -0.23192344 0.16834516
H 5.844012 6.212343 5.326917 1 -0.07328009 0.43312938 0.07037269
6
energy=-373.345298 Lattice="12.718 0.0 0.0 0.0 12.718 0.0 0.0 0.0 12.718" Properties=species:S:1:pos:R:3:Z:I:1:force:R:3
C 6.035693 7.699183 5.971447 6 0.21078124 -0.09021905 -0.38964171
H 5.941609 8.751268 6.109273 1 0.00615523 0.86192130 0.72129060
H 5.842423 6.971733 6.747928 1 -0.33178156 0.15600797 0.42255134
C 6.406449 7.253064 4.781291 6 -0.37093229 -0.68868693 -0.05555335
H 6.318457 6.186548 4.653035 1 0.48414678 -0.55426699 -0.46122333
H 6.672821 7.854864 3.927175 1 0.00101713 0.32136036 -0.24426989
6
energy=-373.364890 Lattice="12.718 0.0 0.0 0.0 12.718 0.0 0.0 0.0 12.718" Properties=species:S:1:pos:R:3:Z:I:1:force:R:3
C 6.394556 7.202982 4.256400 6 -0.22836297 1.00442942 0.63437696
H 6.388985 6.116872 4.071882 1 -0.07732958 0.37620974 0.24215078
H 6.580636 7.844551 3.380448 1 0.23855792 -0.25655360 0.22206582
C 6.121303 7.777126 5.460648 6 -0.80625945 -1.88450324 -0.68172849
H 6.052728 8.844851 5.638371 1 0.17845628 0.18817712 -0.13143437
H 5.708663 7.113369 6.262319 1 0.69329795 0.57868786 -0.29507235
6
energy=-373.301277 Lattice="12.718 0.0 0.0 0.0 12.718 0.0 0.0 0.0 12.718" Properties=species:S:1:pos:R:3:Z:I:1:force:R:3
C 6.454011 6.583357 5.599709 6 -0.42546131 -0.11798595 -0.32526947
H 6.710348 5.711130 4.952972 1 0.15373922 0.71391770 0.42092640
H 6.320258 7.588955 5.103243 1 0.15375311 -1.10698360 0.44562700
C 6.149200 6.428576 6.896528 6 -0.30815928 0.96176296 0.01369730
H 5.737309 7.248290 7.479750 1 0.13073658 0.62380355 -0.13842007
H 6.200233 5.587555 7.565273 1 0.29434267 -1.06565515 -0.42406675
6
energy=-373.429709 Lattice="12.718 0.0 0.0 0.0 12.718 0.0 0.0 0.0 12.718" Properties=species:S:1:pos:R:3:Z:I:1:force:R:3
C 6.414294 6.479012 5.482612 6 0.01792626 -0.79800311 -0.07593810
H 6.466481 5.450908 5.897274 1 -0.18695533 0.61944090 -0.07723034
H 6.590353 6.559491 4.416290 1 0.15273084 -0.06372689 -0.29664895
C 6.150795 7.572598 6.188619 6 0.30713392 0.00178846 0.87776291
H 6.236018 8.555448 5.714271 1 -0.31682647 -0.03446463 0.20995181
H 5.979227 7.504570 7.284514 1 0.02648238 0.26554321 -0.63384012
6
energy=-373.340677 Lattice="12.718 0.0 0.0 0.0 12.718 0.0 0.0 0.0 12.718" Properties=species:S:1:pos:R:3:Z:I:1:force:R:3
C 6.168944 6.256963 6.951528 6 -0.31555223 -1.23118957 0.35755329
H 5.672650 7.016804 7.580594 1 0.51091507 0.29136276 -0.64739395
H 6.251004 5.310103 7.555474 1 0.16631707 0.57585707 -0.85265504
C 6.462264 6.338795 5.635874 6 -0.55796681 -0.07558020 0.84807693
H 6.750026 5.495289 4.991929 1 0.22220466 0.12028195 0.49986601
H 6.299121 7.272617 5.114693 1 -0.02391230 0.32938632 -0.20545854
6
energy=-373.337351 Lattice="12.718 0.0 0.0 0.0 12.718 0.0 0.0 0.0 12.718" Properties=species:S:1:pos:R:3:Z:I:1:force:R:3
C 6.349008 7.123763 4.579253 6 0.76795975 0.41474906 -1.35371352
H 6.438633 6.011220 4.609233 1 -0.22985473 0.86990407 -0.23957248
H 6.586667 7.725815 3.633787 1 -0.21743578 -1.32789551 0.97319615
C 6.092376 7.861155 5.648895 6 -0.50970511 0.95413244 0.73267442
H 6.073695 8.967079 5.635838 1 0.05608608 -0.42334581 -0.32947939
H 5.798697 7.484243 6.621939 1 0.13696636 -0.48364285 0.22045374
6
energy=-373.272889 Lattice="12.718 0.0 0.0 0.0 12.718 0.0 0.0 0.0 12.718" Properties=species:S:1:pos:R:3:Z:I:1:force:R:3
C 6.233195 6.821057 4.749487 6 -0.84171087 0.65357849 0.68306289
H 5.943982 6.139937 5.612394 1 0.52333660 0.45492309 -1.25196667
H 6.260316 6.438666 3.697554 1 0.26645390 0.15345949 0.99001221
C 6.278839 8.146584 5.032236 6 -0.19940925 0.17856324 -1.09783252
H 6.413313 8.990665 4.310270 1 0.12833002 -1.02195819 -0.01921438
H 6.053350 8.588990 5.993136 1 0.12273478 -0.42339826 0.68963670
6
energy=-373.282763 Lattice="12.718 0.0 0.0 0.0 12.718 0.0 0.0 0.0 12.718" Properties=species:S:1:pos:R:3:Z:I:1:force:R:3
C 6.412956 8.008191 4.670642 6 -0.53612424 -0.28535923 -2.85001436
H 6.443782 7.801980 3.556653 1 0.45278393 0.01213510 1.01556179
H 6.461958 9.084942 4.811738 1 0.03751602 -0.02781267 0.92186250
C 6.057119 6.997568 5.452852 6 -0.26837657 0.18947295 1.22515981
H 5.802422 7.181740 6.514055 1 0.28728910 -0.25778721 -0.31258055
H 5.963449 5.961419 5.097324 1 0.02759876 0.36835193 -0.00622156
6
energy=-373.244148 Lattice="12.718 0.0 0.0 0.0 12.718 0.0 0.0 0.0 12.718" Properties=species:S:1:pos:R:3:Z:I:1:force:R:3
C 6.119708 6.743091 6.656365 6 -1.41843698 0.63598648 2.15346396
H 5.759949 7.667460 7.213814 1 0.49383625 -1.06118759 -0.42673864
H 5.957058 5.786374 7.240588 1 0.70882485 0.88749402 -0.83190468
C 6.450335 6.888256 5.383771 6 -0.64426801 -0.73339330 -0.66977799
H 6.645248 5.971813 4.797454 1 0.18483931 0.65353838 -0.13952564
H 6.236230 7.857840 4.904904 1 0.67472069 -0.38631470 -0.08568567
6
energy=-373.274640 Lattice="12.718 0.0 0.0 0.0 12.718 0.0 0.0 0.0 12.718" Properties=species:S:1:pos:R:3:Z:I:1:force:R:3
C 6.142449 7.530772 6.263095 6 0.67729333 -0.39064032 0.88847979
H 6.258645 8.553463 5.811731 1 -0.48664641 -1.01640306 0.32344809
H 6.035768 7.428514 7.384964 1 -0.08343544 0.58041718 -1.13186161
C 6.380694 6.374342 5.617053 6 0.73212421 -0.73543116 0.38404030
H 6.537534 5.380445 6.150525 1 -0.64621433 1.25501857 -0.37665968
H 6.638939 6.290830 4.558500 1 -0.19510830 0.30688246 -0.09006272
6
energy=-373.332760 Lattice="12.718 0.0 0.0 0.0 12.718 0.0 0.0 0.0 12.718" Properties=species:S:1:pos:R:3:Z:I:1:force:R:3
C 6.414991 7.238089 4.819246 6 -0.55003444 1.14018634 0.58499067
H 6.445738 6.149389 4.619886 1 0.18403095 0.64456214 0.05347693
H 6.597302 7.979128 4.008532 1 0.00407572 -0.78189411 0.22269677
C 6.040226 7.735958 6.021966 6 -0.05944343 -2.21658202 0.59422556
H 5.880864 8.749285 6.333047 1 0.20520298 0.89612625 -0.48631731
H 5.824253 7.057445 6.898778 1 0.21507293 0.30674877 -0.96548849
6
energy=-373.335813 Lattice="12.718 0.0 0.0 0.0 12.718 0.0 0.0 0.0 12.718" Properties=species:S:1:pos:R:3:Z:I:1:force:R:3
C 6.150784 6.787967 6.112772 6 0.16558790 1.97431965 -0.25229328
H 5.969349 6.702947 7.174644 1 -0.07748025 0.65592951 0.42516358
H 6.250313 5.844531 5.686126 1 0.02450263 -1.78106871 -1.17169986
C 6.316072 7.907713 5.369296 6 0.31920269 -0.37003497 1.30149901
H 6.559777 7.867516 4.313835 1 -0.07153225 -0.17485468 -0.25196520
H 6.383493 8.912705 5.816661 1 -0.35975055 -0.31232549 -0.05886853
6
energy=-373.253522 Lattice="12.718 0.0 0.0 0.0 12.718 0.0 0.0 0.0 12.718" Properties=species:S:1:pos:R:3:Z:I:1:force:R:3
C 6.072994 7.006854 5.139787 6 0.49538920 2.36902077 0.07676754
H 5.949019 7.093687 6.200890 1 -0.20947152 0.35082419 0.79823503
H 5.796372 6.046815 4.818450 1 0.16311399 -1.40531971 -1.12095704
C 6.446232 8.090671 4.405178 6 -1.13317031 -1.89049648 0.93481315
H 6.580969 7.936616 3.347690 1 0.08745099 0.45309452 -0.54489685
H 6.400162 9.074696 4.865279 1 0.59642283 0.12348246 -0.13830694
6
energy=-373.267259 Lattice="12.718 0.0 0.0 0.0 12.718 0.0 0.0 0.0 12.718" Properties=species:S:1:pos:R:3:Z:I:1:force:R:3
C 6.058240 7.920516 6.142910 6 0.65637997 -0.08911039 -1.06541809
H 6.140297 8.982495 5.830656 1 -0.24971343 -0.46948737 0.27758369
H 5.835937 7.742075 7.204029 1 -0.07163870 -0.22022697 -0.39713494
C 6.370988 6.986712 5.212966 6 0.20990141 -1.00792870 1.50031587
H 6.497271 5.881888 5.335286 1 -0.58803588 0.71120724 0.75623551
H 6.721659 7.173535 4.228655 1 0.04281250 1.07038186 -1.07347953
6
energy=-373.286530 Lattice="12.718 0.0 0.0 0.0 12.718 0.0 0.0 0.0 12.718" Properties=species:S:1:pos:R:3:Z:I:1:force:R:3
C 6.390583 7.258875 4.724928 6 0.61341217 0.87681931 -1.42810639
H 6.519622 6.164239 4.540527 1 -0.10628588 0.94595324 -0.17893040
H 6.660862 8.043836 3.928429 1 -0.46825273 -1.46197658 0.79714077
C 6.010747 7.687117 5.920642 6 0.65362323 -0.98375002 1.25824068
H 6.003425 8.701486 6.293299 1 -0.22728722 0.47705722 -0.36028123
H 5.959855 6.933986 6.721145 1 -0.46486555 0.15410175 -0.07643484
6
energy=-373.318264 Lattice="12.718 0.0 0.0 0.0 12.718 0.0 0.0 0.0 12.718" Properties=species:S:1:pos:R:3:Z:I:1:force:R:3
C 6.363892 7.048173 4.949925 6 -0.37456835 0.59575588 1.41041307
H 6.287104 6.023312 5.201616 1 0.28415133 -1.33187867 -0.12626491
H 6.544936 7.370055 3.959279 1 0.30237120 0.13394686 -1.16015405
C 6.109086 7.931427 5.918960 6 -0.80336695 0.06108277 -0.68899546
H 5.953505 8.958811 5.600006 1 0.32290970 0.41087183 0.47819828
H 5.768374 7.619336 6.906954 1 0.26803101 0.12739105 0.08632177
6
energy=-373.289787 Lattice="12.718 0.0 0.0 0.0 12.718 0.0 0.0 0.0 12.718" Properties=species:S:1:pos:R:3:Z:I:1:force:R:3
C 6.274997 7.030565 6.252325 6 -0.60955346 0.85851613 -0.31759317
H 6.313443 7.415830 5.181997 1 0.08933819 -0.02243443 1.50451294
H 6.001827 7.705475 7.117429 1 0.53808394 -0.45893401 -1.07554619
C 6.360496 5.714332 6.418974 6 -0.48498085 -0.59641871 -1.44333864
H 6.158134 5.161431 7.307953 1 0.10561019 -0.08476985 1.06886954
H 6.411195 5.055589 5.530981 1 0.36114666 0.30452425 0.27508201
6
energy=-373.361537 Lattice="12.718 0.0 0.0 0.0 12.718 0.0 0.0 0.0 12.718" Properties=species:S:1:pos:R:3:Z:I:1:force:R:3
C 6.331236 7.129762 4.327398 6 -0.00815040 -0.14598529 -0.09345812
H 6.286012 6.037801 4.490709 1 -0.26673929 0.50447908 0.27557309
H 6.523739 7.375344 3.300471 1 0.34553903 0.36798118 -0.62419076
C 6.158148 8.048294 5.284814 6 0.01922467 -1.31417867 0.44726994
H 6.320425 9.122170 5.210265 1 -0.23207359 -0.03415764 -0.22960790
H 5.885368 7.603885 6.249971 1 0.14575491 0.62062361 0.21696475
6
energy=-373.413847 Lattice="12.718 0.0 0.0 0.0 12.718 0.0 0.0 0.0 12.718" Properties=species:S:1:pos:R:3:Z:I:1:force:R:3
C 6.348741 8.146771 4.684852 6 0.15172296 -1.23852853 -0.03572653
H 6.595875 8.493204 3.698959 1 0.06343225 0.42341626 -0.45133537
H 6.386091 8.798795 5.520918 1 -0.10769845 0.98583622 0.62059533
C 6.140528 6.848491 4.901048 6 -0.13671131 -0.40898053 0.44717944
H 5.923328 6.409866 5.885321 1 0.07374032 0.37849442 -0.06414290
H 6.185824 6.101642 4.122960 1 -0.04376998 -0.13707846 -0.51981470
6
energy=-373.374492 Lattice="12.718 0.0 0.0 0.0 12.718 0.0 0.0 0.0 12.718" Properties=species:S:1:pos:R:3:Z:I:1:force:R:3
C 6.273800 7.390719 5.815898 6 0.02084858 -0.23780562 0.83255157
H 6.549844 7.676297 4.818817 1 0.09968688 0.00182034 -0.57926996
H 6.088747 8.176719 6.515648 1 -0.29919640 0.86014878 0.34609233
C 6.247688 6.136411 6.265205 6 0.62532565 -0.03963770 -1.74237050
H 6.012590 5.892754 7.284941 1 -0.09806143 -0.32790639 0.38030705
H 6.550375 5.387316 5.509402 1 -0.34770750 -0.26839611 0.76889461
6
energy=-373.259647 Lattice="12.718 0.0 0.0 0.0 12.718 0.0 0.0 0.0 12.718" Properties=species:S:1:pos:R:3:Z:I:1:force:R:3
C 6.340219 5.795934 6.267874 6 0.71034695 -0.07965643 0.47550479
H 6.313983 5.145602 7.206622 1 -0.07468700 0.72339530 -1.47477040
H 6.709358 5.442928 5.298628 1 -0.43288872 -0.82555868 0.23486736
C 6.223663 7.126070 6.320417 6 0.32695611 0.32401631 1.67074928
H 6.405144 7.774607 5.461307 1 -0.16495747 -0.06669652 0.01180394
H 6.140978 7.608519 7.328640 1 -0.36419342 -0.08308783 -0.91480070
6
energy=-373.321493 Lattice="12.718 0.0 0.0 0.0 12.718 0.0 0.0 0.0 12.718" Properties=species:S:1:pos:R:3:Z:I:1:force:R:3
C 6.441840 6.724421 5.242909 6 -0.89767611 1.02475812 1.97491203
H 6.421648 5.677971 5.507753 1 0.28718574 -0.40814029 0.11948491
H 6.587652 6.956691 4.207213 1 0.19907655 0.30396683 -0.57882104
C 6.120724 7.668827 6.173420 6 -0.44801042 -1.00992902 -0.24301725
H 5.931710 8.694282 5.915820 1 0.33844072 0.69115519 -0.52559094
H 5.818143 7.521134 7.238264 1 0.52057986 -0.61158052 -0.73701650
6
energy=-373.336725 Lattice="12.718 0.0 0.0 0.0 12.718 0.0 0.0 0.0 12.718" Properties=species:S:1:pos:R:3:Z:I:1:force:R:3
C 6.430523 6.219468 5.620031 6 -0.52950416 1.39475916 -0.16376653
H 6.508393 5.158356 5.876610 1 0.06806126 0.20543489 -0.20158080
H 6.456158 6.586794 4.576895 1 0.41673550 -0.69557235 0.24471932
C 6.135081 7.162500 6.533512 6 -0.85973535 -0.32257238 0.67461373
H 5.925077 8.235347 6.347082 1 0.38507182 -0.59040233 -0.37655478
H 5.853948 6.879187 7.563913 1 0.51916523 0.00265801 -0.18469636
6
energy=-373.372927 Lattice="12.718 0.0 0.0 0.0 12.718 0.0 0.0 0.0 12.718" Properties=species:S:1:pos:R:3:Z:I:1:force:R:3
C 6.402947 6.885828 5.401862 6 0.18578445 -0.97605316 1.76281387
H 6.771636 6.133237 4.716908 1 -0.09763720 -0.18262045 -0.31796804
H 6.455975 7.912402 5.106321 1 -0.22244223 0.66464710 -0.38973529
C 6.111944 6.572470 6.686176 6 0.21732882 0.93661910 0.09462489
H 5.868508 7.360760 7.429135 1 -0.02049222 -0.17573348 -0.55819769
H 6.187168 5.601998 7.181553 1 -0.06269331 -0.27102275 -0.58126205
6
energy=-373.385673 Lattice="12.718 0.0 0.0 0.0 12.718 0.0 0.0 0.0 12.718" Properties=species:S:1:pos:R:3:Z:I:1:force:R:3
C 6.305891 6.703113 5.603362 6 0.18321386 1.08864082 -0.46687564
H 6.228569 5.999114 6.430004 1 -0.04097519 -0.29495974 -0.15668828
H 6.559558 6.333195 4.570393 1 -0.32267059 0.29078169 1.06200726
C 6.159775 8.020664 5.873952 6 0.39280828 0.19258811 -0.62311398
H 6.289400 8.844022 5.136743 1 -0.10762286 -0.76687423 0.02610957
H 5.977582 8.449496 6.863800 1 -0.10665663 -0.50974008 0.15172451
6
energy=-373.406533 Lattice="12.718 0.0 0.0 0.0 12.718 0.0 0.0 0.0 12.718" Properties=species:S:1:pos:R:3:Z:I:1:force:R:3
C 6.409966 7.124481 5.368308 6 -0.03930757 0.52153322 1.59942323
H 6.722215 6.488367 4.568400 1 0.03811560 -0.79332165 -0.44529893
H 6.487062 8.182593 5.113537 1 -0.25812249 0.12421368 0.18341286
C 6.112102 6.685412 6.615812 6 0.18993421 0.81753426 -0.65647098
H 5.862412 7.331857 7.484764 1 0.12911627 -0.12969785 -0.72958601
H 6.139171 5.632653 6.843386 1 -0.06082052 -0.53353000 0.04150946
6