6
energy=-373.324301 Lattice="12.718 0.0 0.0 0.0 12.718 0.0 0.0 0.0 12.718" Properties=species:S:1:pos:R:3:Z:I:1:force:R:3
C 6.421135 6.321561 5.532668 6 0.54694191 0.55781203 -0.34262185
H 6.623359 5.217343 5.604103 1 -0.28406699 1.03920310 0.01457251
H 6.657084 6.802313 4.523811 1 -0.61298691 -0.65396261 1.20631619
C 6.091490 7.077218 6.607226 6 0.70886188 -0.68099058 0.33721790
H 5.979447 8.167998 6.628702 1 -0.03182719 -0.17406329 -0.51522270
H 6.088464 6.658734 7.639206 1 -0.32558931 -0.08739494 -0.70268917
6
energy=-373.388894 Lattice="12.718 0.0 0.0 0.0 12.718 0.0 0.0 0.0 12.718" Properties=species:S:1:pos:R:3:Z:I:1:force:R:3
C 6.233309 5.873780 6.817074 6 -0.26242343 -0.40820971 0.23735567
H 5.865968 6.204891 7.825088 1 0.42918222 -0.51226696 -0.87097262
H 6.416931 4.810935 6.565287 1 -0.10764137 0.31749136 0.79104262
C 6.388794 6.714663 5.797781 6 -0.51220423 0.76804614 0.41270760
H 6.677309 6.336804 4.829011 1 0.18704172 0.06720251 -0.40396173
H 6.138665 7.781936 5.902170 1 0.26519817 -0.24166999 -0.17343543
6
energy=-373.365790 Lattice="12.718 0.0 0.0 0.0 12.718 0.0 0.0 0.0 12.718" Properties=species:S:1:pos:R:3:Z:I:1:force:R:3
C 6.432146 6.471428 5.480197 6 -0.58117309 0.00212322 2.57009353
H 6.527793 5.388300 5.640252 1 0.04334883 0.21827447 -0.10863998
H 6.562217 6.826203 4.483001 1 0.18999078 0.43906812 -0.70216363
C 6.111062 7.283399 6.530961 6 -0.39498755 -0.31168529 -0.91130811
H 5.932141 8.350445 6.361911 1 0.22123176 0.00308070 -0.11346441
H 5.832280 6.992445 7.568482 1 0.51992063 -0.34986208 -0.73141201
6
energy=-373.376286 Lattice="12.718 0.0 0.0 0.0 12.718 0.0 0.0 0.0 12.718" Properties=species:S:1:pos:R:3:Z:I:1:force:R:3
C 6.387862 6.960945 5.252660 6 0.81533391 -1.78358274 0.26220437
H 6.514269 5.876091 5.553997 1 -0.35045292 0.99461860 -0.61712331
H 6.734355 7.221308 4.242161 1 -0.34347854 0.10029264 0.27640870
C 6.057145 7.814323 6.209419 6 0.24691967 0.94250282 0.41862423
H 6.091887 8.898813 6.075046 1 -0.22779219 -0.01094571 -0.22915076
H 5.869287 7.517891 7.243254 1 -0.14424156 -0.25123553 -0.11449748
6
energy=-373.301217 Lattice="12.718 0.0 0.0 0.0 12.718 0.0 0.0 0.0 12.718" Properties=species:S:1:pos:R:3:Z:I:1:force:R:3
C 6.357046 7.923043 4.944888 6 1.46997426 0.99970219 -0.31531723
H 6.699318 7.673098 3.938956 1 -0.50248545 -0.24145196 -0.19960414
H 6.633731 8.976734 5.202216 1 -0.66486667 -0.67750776 0.00943441
C 6.046730 7.018518 5.868788 6 0.29343610 1.29597884 0.47669109
H 5.976440 7.423637 6.892737 1 -0.33148125 -0.76261803 -0.15797229
H 5.993714 5.975441 5.624858 1 -0.26610217 -0.60970978 0.17574685
6
energy=-373.376653 Lattice="12.718 0.0 0.0 0.0 12.718 0.0 0.0 0.0 12.718" Properties=species:S:1:pos:R:3:Z:I:1:force:R:3
C 6.478834 7.087514 5.161415 6 -0.58153613 0.10302469 0.24763186
H 6.642312 6.161472 4.660027 1 0.30331017 -0.50622024 -0.96215531
H 6.433977 8.041215 4.643067 1 0.43811064 -0.01492989 -0.24167256
C 6.113936 7.006933 6.432491 6 -0.18490050 0.32465600 0.53300087
H 5.922797 7.936290 6.968033 1 -0.19673993 -0.13136598 0.35833696
H 5.968421 6.047114 6.940202 1 0.22059721 0.23289069 0.07455227
6
energy=-373.346494 Lattice="12.718 0.0 0.0 0.0 12.718 0.0 0.0 0.0 12.718" Properties=species:S:1:pos:R:3:Z:I:1:force:R:3
C 6.093249 7.386158 6.281582 6 -0.03632560 1.05770683 2.69847137
H 6.072909 8.482709 6.442252 1 -0.30700074 -0.42538727 -0.39519735
H 5.976792 6.842337 7.249068 1 -0.08123046 0.02985259 -0.79508800
C 6.455769 6.836497 5.151743 6 0.76063725 -0.06620338 -1.24717259
H 6.674300 5.764751 5.102291 1 -0.22154646 0.14497227 -0.38918611
H 6.673268 7.518242 4.304332 1 -0.11227039 -0.74209289 0.12981715
6
energy=-373.354010 Lattice="12.718 0.0 0.0 0.0 12.718 0.0 0.0 0.0 12.718" Properties=species:S:1:pos:R:3:Z:I:1:force:R:3
C 6.464733 5.908972 5.859542 6 0.38250998 -1.21489751 -2.18479287
H 6.728335 4.827592 5.924538 1 -0.11744808 0.69982804 0.56746139
H 6.445200 6.197752 4.763187 1 -0.02173766 0.12431961 1.23233525
C 6.168427 6.740754 6.843973 6 -0.59948810 0.53871386 -0.53615613
H 5.833049 7.751346 6.556325 1 0.24279510 -0.19576856 0.48637799
H 6.102877 6.418744 7.871091 1 0.11222668 0.05339054 0.43707191
6
energy=-373.314981 Lattice="12.718 0.0 0.0 0.0 12.718 0.0 0.0 0.0 12.718" Properties=species:S:1:pos:R:3:Z:I:1:force:R:3
C 6.310101 8.161531 4.992315 6 -0.63054602 0.40733708 1.26853796
H 6.414524 8.643799 4.068327 1 0.41298323 1.01838178 -1.33896515
H 6.163836 8.763945 5.909733 1 0.24218986 -0.14565361 -0.53664823
C 6.156847 6.859213 5.046079 6 -0.12375294 -1.46549848 1.53417578
H 5.974041 6.367610 6.005022 1 -0.02557735 0.16284196 0.24293394
H 6.225023 6.102989 4.293520 1 0.12453250 0.01851041 -1.16614936
6
energy=-373.302693 Lattice="12.718 0.0 0.0 0.0 12.718 0.0 0.0 0.0 12.718" Properties=species:S:1:pos:R:3:Z:I:1:force:R:3
C 6.203107 7.715041 5.915773 6 -0.07561106 2.28769055 1.75623441
H 6.258020 8.615483 5.280671 1 -0.05304138 -0.65120536 -0.37378724
H 6.102501 8.074771 6.993641 1 -0.10357851 -0.88748374 -1.09202286
C 6.345694 6.452563 5.562934 6 0.76800655 -0.83844917 0.73697639
H 6.408529 5.679134 6.372363 1 -0.23304753 0.39825902 -0.91382060
H 6.634760 6.199923 4.544839 1 -0.30381719 -0.31246331 -0.10244671
6
energy=-373.403125 Lattice="12.718 0.0 0.0 0.0 12.718 0.0 0.0 0.0 12.718" Properties=species:S:1:pos:R:3:Z:I:1:force:R:3
C 6.316638 6.357191 5.830354 6 0.65990289 -1.70760916 -0.59288190
H 6.241608 5.721465 6.726543 1 -0.00254848 0.09847744 -0.36432764
H 6.592465 5.878994 4.854011 1 -0.49675651 0.09194477 0.85950703
C 6.242520 7.666527 5.886652 6 -0.00293980 0.79838672 0.49290757
H 6.357455 8.232541 4.978450 1 0.04391190 0.55172931 -0.26194623
H 6.122872 8.185733 6.838984 1 -0.20149493 0.16396554 -0.13035348
6
energy=-373.400281 Lattice="12.718 0.0 0.0 0.0 12.718 0.0 0.0 0.0 12.718" Properties=species:S:1:pos:R:3:Z:I:1:force:R:3
C 6.369253 8.003935 4.925794 6 0.04526945 -0.12929316 -0.96894354
H 6.498031 7.849563 3.839520 1 0.12681153 0.06044411 0.34478518
H 6.467602 9.054798 5.224475 1 -0.08363753 -0.33715157 0.38290644
C 6.071713 6.947110 5.686028 6 -0.62847885 -0.49583709 -0.29866110
H 5.793709 7.044215 6.737120 1 0.26528713 -0.05205459 0.08564968
H 5.926559 5.928708 5.227982 1 0.27573507 0.95191923 0.44910674
6
energy=-373.398125 Lattice="12.718 0.0 0.0 0.0 12.718 0.0 0.0 0.0 12.718" Properties=species:S:1:pos:R:3:Z:I:1:force:R:3
C 6.343304 7.239637 5.609490 6 -0.22529616 1.53221043 0.17846914
H 6.619241 7.157728 4.573185 1 0.22521697 -0.37082687 -0.47085623
H 6.171539 8.277979 5.944713 1 -0.00097136 -0.29154120 -0.18059647
C 6.188896 6.254373 6.476960 6 0.09647454 0.22969584 0.07423397
H 5.885651 6.540084 7.486632 1 0.05715566 -0.58429390 0.07802841
H 6.406400 5.242881 6.168329 1 -0.15149516 -0.51358594 0.31205501
6
energy=-373.313192 Lattice="12.718 0.0 0.0 0.0 12.718 0.0 0.0 0.0 12.718" Properties=species:S:1:pos:R:3:Z:I:1:force:R:3
C 6.358518 7.036486 5.120296 6 0.98883464 -1.90975046 -0.70379320
H 6.481429 5.927066 5.314203 1 -0.63139243 1.13441421 0.23459893
H 6.710529 7.243658 4.093307 1 -0.33785862 0.37645965 0.35690383
C 6.061819 7.974066 6.011260 6 0.60708777 0.50907416 0.14664554
H 6.238323 9.019338 5.682907 1 -0.56254543 -0.35696091 0.50409959
H 5.852577 7.742509 7.072417 1 -0.06410073 0.24523611 -0.54015625
6
energy=-373.341753 Lattice="12.718 0.0 0.0 0.0 12.718 0.0 0.0 0.0 12.718" Properties=species:S:1:pos:R:3:Z:I:1:force:R:3
C 6.123419 7.876946 5.522771 6 -0.30260620 -0.29579277 -0.99849583
H 6.064941 8.954017 5.549522 1 0.20604167 0.43227988 -0.27933205
H 5.767874 7.400745 6.399683 1 -0.02234290 -0.53121909 1.23113095
C 6.366822 7.122089 4.437947 6 -0.26692852 1.48257062 0.70754650
H 6.311123 6.056998 4.569157 1 0.08317576 -0.57355593 -0.49716378
H 6.530091 7.633903 3.488526 1 0.29926839 -0.50952359 -0.17680255
6
energy=-373.409230 Lattice="12.718 0.0 0.0 0.0 12.718 0.0 0.0 0.0 12.718" Properties=species:S:1:pos:R:3:Z:I:1:force:R:3
C 6.103786 7.018101 6.581153 6 0.34228761 0.01189136 -1.81037982
H 5.841443 7.947270 7.102281 1 0.13179176 -0.02653637 -0.36900448
H 6.039116 6.127229 7.194941 1 0.02118642 -0.28019285 0.09731632
C 6.454685 6.923326 5.257212 6 -0.26157857 0.91748288 1.54530301
H 6.717490 5.974417 4.800524 1 -0.04507661 -0.24971909 0.04106517
H 6.559633 7.802220 4.587082 1 -0.18973932 -0.36135030 0.49957239
6
energy=-373.316221 Lattice="12.718 0.0 0.0 0.0 12.718 0.0 0.0 0.0 12.718" Properties=species:S:1:pos:R:3:Z:I:1:force:R:3
C 6.260623 6.931584 4.796402 6 0.57791087 0.36049720 0.45777342
H 6.336717 5.969598 5.268480 1 -0.40891728 -0.44906509 0.54962820
H 6.540097 6.900864 3.787014 1 0.08925951 0.09967917 -1.81462626
C 6.154387 8.074616 5.465825 6 0.16570052 -0.18817609 0.63746280
H 6.277871 9.083796 5.048205 1 -0.22919704 -0.37472518 0.00413485
H 6.046323 7.953579 6.543673 1 -0.19420533 0.55297784 0.16758617
6
energy=-373.341044 Lattice="12.718 0.0 0.0 0.0 12.718 0.0 0.0 0.0 12.718" Properties=species:S:1:pos:R:3:Z:I:1:force:R:3
C 6.084445 6.951804 5.281412 6 0.18357175 0.21929777 -1.59137721
H 5.783316 6.998375 6.297301 1 0.07865987 -0.18356353 1.09241572
H 6.027913 6.042140 4.702608 1 -0.26090545 -0.68611891 0.28201988
C 6.416624 8.030773 4.575240 6 -0.55220033 1.10216895 0.70477176
H 6.449762 8.038872 3.495378 1 0.50674577 -0.21136591 -0.34195799
H 6.464154 9.023043 5.052886 1 0.04730885 -0.23277756 -0.15144426
6
energy=-373.331265 Lattice="12.718 0.0 0.0 0.0 12.718 0.0 0.0 0.0 12.718" Properties=species:S:1:pos:R:3:Z:I:1:force:R:3
C 6.208050 8.131367 5.280756 6 -0.09646580 -0.93988080 -0.86715350
H 6.293608 8.999057 4.579661 1 0.09046433 -0.34527472 1.06144368
H 6.039058 8.185266 6.377466 1 -0.01457817 0.55361084 -0.76195314
C 6.252918 6.894455 4.735483 6 0.12232238 -0.51905776 0.35635258
H 6.077907 5.976713 5.343539 1 0.20438074 0.65227083 -0.13649739
H 6.505951 6.634053 3.688112 1 -0.30667061 0.59570189 0.34565576
6
energy=-373.292150 Lattice="12.718 0.0 0.0 0.0 12.718 0.0 0.0 0.0 12.718" Properties=species:S:1:pos:R:3:Z:I:1:force:R:3
C 6.214982 6.041792 6.843090 6 0.03425946 -1.73304304 0.86241495
H 5.789173 6.313111 7.815679 1 0.22147756 0.86408154 -0.19707520
H 6.430441 4.952259 6.931902 1 -0.01601233 0.48660630 -0.87078853
C 6.400601 6.834888 5.793124 6 -0.42094902 0.02234033 -0.36249701
H 6.633191 6.522571 4.753506 1 0.27098778 -0.03478756 0.79438968
H 6.167472 7.882952 5.934064 1 -0.09073789 0.39325360 -0.22487450
6
energy=-373.301953 Lattice="12.718 0.0 0.0 0.0 12.718 0.0 0.0 0.0 12.718" Properties=species:S:1:pos:R:3:Z:I:1:force:R:3
C 6.402597 6.907024 5.669059 6 -0.17434663 -3.64378903 1.62910509
H 6.671581 6.395752 4.756959 1 0.36129733 -0.05902743 -0.39659500
H 6.210413 7.924590 5.598704 1 -0.36228566 1.99134396 0.13788785
C 6.193253 6.149827 6.793607 6 -0.09081709 0.85934865 -0.81861258
H 5.791258 6.599897 7.698914 1 0.09446857 0.34316436 0.15354948
H 6.318381 5.057636 6.932476 1 0.17166240 0.50895898 -0.70578118
6
energy=-373.335376 Lattice="12.718 0.0 0.0 0.0 12.718 0.0 0.0 0.0 12.718" Properties=species:S:1:pos:R:3:Z:I:1:force:R:3
C 6.364879 6.772506 5.820791 6 0.41873119 -0.87224120 0.62854210
H 6.717936 6.511580 4.775036 1 -0.40414480 0.21206114 1.22828731
H 6.235590 7.863718 6.041821 1 -0.17495907 -0.93972088 -0.25710536
C 6.237586 5.838063 6.820996 6 0.14767142 1.69529562 -0.69451562
H 5.913682 6.126590 7.835247 1 0.09659899 0.14660441 -0.37116369
H 6.506392 4.789546 6.760818 1 -0.08422940 -0.23430994 -0.53010837
6
energy=-373.358129 Lattice="12.718 0.0 0.0 0.0 12.718 0.0 0.0 0.0 12.718" Properties=species:S:1:pos:R:3:Z:I:1:force:R:3
C 6.408685 6.364773 5.604710 6 -0.35640040 0.10395183 1.08065703
H 6.417818 5.424741 6.090051 1 0.22662645 -1.42690980 0.03294048
H 6.583432 6.452440 4.572247 1 0.23580118 0.06417941 -1.39787585
C 6.117914 7.374677 6.399186 6 0.08972642 1.65776417 0.02760493
H 6.075896 8.414380 6.059219 1 -0.03404657 -0.06943475 -0.17392857
H 5.980517 7.281042 7.464465 1 -0.16119234 -0.33180727 0.42532967
6
energy=-373.389256 Lattice="12.718 0.0 0.0 0.0 12.718 0.0 0.0 0.0 12.718" Properties=species:S:1:pos:R:3:Z:I:1:force:R:3
C 6.247209 8.132297 4.992291 6 0.64169484 -0.45780993 0.17297623
H 6.499396 8.898764 4.287852 1 0.07350532 0.63763918 -0.47392099
H 6.247450 8.456020 6.031679 1 -0.52353251 -0.18549237 0.13912558
C 6.230013 6.862672 4.572122 6 0.14127348 0.43736399 -0.09216692
H 6.023393 6.034174 5.239910 1 0.04819074 -0.24736190 0.06878631
H 6.488703 6.655305 3.525373 1 -0.37935472 -0.17697121 0.19219216
6
energy=-373.246502 Lattice="12.718 0.0 0.0 0.0 12.718 0.0 0.0 0.0 12.718" Properties=species:S:1:pos:R:3:Z:I:1:force:R:3
C 6.429111 7.485642 5.282802 6 -0.45382986 -1.20788507 -1.96827344
H 6.598030 7.157838 4.188825 1 -0.04116339 -0.08886767 1.70132178
H 6.294687 8.570296 5.246774 1 0.22605258 0.00657946 0.91264817
C 6.165894 6.631507 6.298862 6 -0.09658664 0.31900831 -0.86190279
H 5.904709 7.051877 7.262186 1 -0.03196963 0.01267555 0.37970181
H 6.089074 5.517275 6.222594 1 0.39936614 0.94791705 -0.17471481
6
energy=-373.321901 Lattice="12.718 0.0 0.0 0.0 12.718 0.0 0.0 0.0 12.718" Properties=species:S:1:pos:R:3:Z:I:1:force:R:3
C 6.078840 7.450882 5.400163 6 -1.36136873 -0.32073712 1.25816663
H 5.823438 8.312380 6.058235 1 0.74448556 -0.19832578 -0.49359920
H 5.738238 6.515614 5.912534 1 0.51579349 0.31201748 -0.80830862
C 6.446952 7.596889 4.129708 6 -0.15649648 0.73971976 -0.29849963
H 6.456714 6.821568 3.356039 1 0.27859054 -0.12032206 0.39061050
H 6.652428 8.623567 3.777398 1 -0.01996669 -0.40585715 -0.03606283
6
energy=-373.366234 Lattice="12.718 0.0 0.0 0.0 12.718 0.0 0.0 0.0 12.718" Properties=species:S:1:pos:R:3:Z:I:1:force:R:3
C 6.339956 7.051565 4.834789 6 0.19604676 0.04797939 0.41411914
H 6.427538 5.981810 4.985605 1 -0.12660018 -0.22786521 0.13112738
H 6.631744 7.403578 3.876622 1 -0.03024494 0.34626717 -1.14898106
C 6.060089 7.894719 5.824915 6 0.58958574 -0.94714777 1.16459846
H 6.097914 8.972549 5.750931 1 -0.16548917 0.27835760 -0.17525629
H 6.017266 7.453504 6.842866 1 -0.46075539 0.49202465 -0.38117454
6
energy=-373.403367 Lattice="12.718 0.0 0.0 0.0 12.718 0.0 0.0 0.0 12.718" Properties=species:S:1:pos:R:3:Z:I:1:force:R:3
C 6.086711 7.375829 6.322597 6 0.61920230 -0.86927774 -0.48423986
H 6.033616 8.469082 6.461877 1 -0.27500745 -0.51158922 0.14448376
H 5.939787 6.662669 7.169322 1 0.02057501 0.83698981 -0.38351116
C 6.473142 6.865388 5.131949 6 -0.10652499 0.41317297 -0.08223679
H 6.659897 5.798637 4.935040 1 -0.25555138 0.21059201 0.32612616
H 6.628568 7.497797 4.237212 1 -0.00238393 -0.07865730 0.48313171
6
energy=-373.353444 Lattice="12.718 0.0 0.0 0.0 12.718 0.0 0.0 0.0 12.718" Properties=species:S:1:pos:R:3:Z:I:1:force:R:3
C 6.045876 7.212617 6.366194 6 0.31388153 -1.30591154 0.24584289
H 5.962552 8.078949 6.969370 1 -0.37459303 0.57642117 1.25144936
H 5.962384 6.168297 6.757739 1 -0.22689385 1.00502952 -0.06038189
C 6.432916 7.424956 5.125207 6 0.25377218 -1.18246302 -1.26740461
H 6.574027 6.548876 4.459148 1 0.05354635 0.63598390 0.05908348
H 6.628631 8.414616 4.738389 1 -0.02292911 0.27038871 -0.23375664
6
energy=-373.265588 Lattice="12.718 0.0 0.0 0.0 12.718 0.0 0.0 0.0 12.718" Properties=species:S:1:pos:R:3:Z:I:1:force:R:3
C 6.468396 6.381425 5.669005 6 -0.61604139 0.16677833 -0.28199108
H 6.747505 5.442852 5.103143 1 0.03577538 1.40201379 0.27993111
H 6.222309 7.388493 5.219994 1 0.58662332 -1.30510781 -0.26641636
C 6.173814 6.295989 6.967467 6 -0.96541702 0.56384641 0.28186973
H 5.643813 7.120148 7.497889 1 0.70908813 -0.28756215 -0.27455185
H 6.227647 5.381737 7.530469 1 0.24985021 -0.55015888 0.25959110
6
energy=-373.307833 Lattice="12.718 0.0 0.0 0.0 12.718 0.0 0.0 0.0 12.718" Properties=species:S:1:pos:R:3:Z:I:1:force:R:3
C 6.420870 8.062447 4.319608 6 0.39267972 -0.04467346 1.29422844
H 6.608358 7.719834 3.329883 1 0.02751802 -0.15358701 -0.92157351
H 6.757909 9.033575 4.614072 1 -0.07668424 1.00991153 -0.18223272
C 6.051106 7.217491 5.274023 6 -0.11016619 -1.88800457 -1.10922560
H 5.903589 7.355139 6.315704 1 0.00836946 0.85289621 0.98000135
H 5.918683 6.156424 5.005450 1 -0.23989901 0.21555270 -0.06507312
6
energy=-373.288417 Lattice="12.718 0.0 0.0 0.0 12.718 0.0 0.0 0.0 12.718" Properties=species:S:1:pos:R:3:Z:I:1:force:R:3
C 6.315072 7.061928 4.396883 6 -0.85273988 -0.58952661 1.51419058
H 6.090863 6.042502 4.660143 1 0.21793200 -0.57330396 0.56150311
H 6.460510 7.167211 3.370985 1 0.41388980 0.54353211 -1.88517275
C 6.190242 8.097173 5.226898 6 0.24785761 -0.24515589 -1.14160559
H 6.280629 9.041496 4.698032 1 0.08995011 0.63601013 0.72665547
H 6.003217 7.991930 6.285740 1 -0.11693437 0.22162719 0.23371859
6
energy=-373.363129 Lattice="12.718 0.0 0.0 0.0 12.718 0.0 0.0 0.0 12.718" Properties=species:S:1:pos:R:3:Z:I:1:force:R:3
C 6.071342 7.660474 5.609696 6 -0.47990138 -0.54038148 -0.36070958
H 5.981141 8.735094 5.817796 1 0.00293672 -0.31387690 0.43161551
H 5.743665 6.896604 6.382018 1 0.58701875 0.95730518 -0.83705820
C 6.409250 7.336158 4.348498 6 -0.00176532 -0.39544058 -0.25333920
H 6.492441 6.320113 3.930259 1 -0.12602374 0.04960330 0.57112315
H 6.614564 8.071626 3.559710 1 0.01859732 0.23962904 0.43942036
6
energy=-373.426556 Lattice="12.718 0.0 0.0 0.0 12.718 0.0 0.0 0.0 12.718" Properties=species:S:1:pos:R:3:Z:I:1:force:R:3
C 6.280963 8.143357 5.216334 6 -0.26978399 -0.83678052 0.37902767
H 6.389588 8.669022 4.281491 1 0.21890079 0.05336637 -0.44362823
H 6.179399 8.757817 6.102546 1 0.08584200 0.26731676 0.20323248
C 6.168136 6.808820 5.339797 6 -0.43770543 0.93710401 -0.18276031
H 5.911695 6.397350 6.309099 1 0.20315843 -0.28251250 0.22199743
H 6.145059 6.136713 4.489559 1 0.20055185 -0.14746059 -0.17613406
6
energy=-373.302931 Lattice="12.718 0.0 0.0 0.0 12.718 0.0 0.0 0.0 12.718" Properties=species:S:1:pos:R:3:Z:I:1:force:R:3
C 6.406714 5.925543 5.952188 6 0.60405078 -1.00349765 0.41774748
H 6.544278 4.975659 6.482530 1 -0.07837551 0.10719142 -0.08651048
H 6.701579 5.928388 4.931220 1 -0.28431845 -0.10304577 -1.20965451
C 6.152619 7.038122 6.611040 6 0.53163252 -0.01767480 0.48275325
H 6.115865 7.985026 6.104837 1 -0.11523024 0.59334933 -0.04078390
H 6.224673 6.975118 7.688011 1 -0.65585443 0.42762104 0.43135789
6
energy=-373.238696 Lattice="12.718 0.0 0.0 0.0 12.718 0.0 0.0 0.0 12.718" Properties=species:S:1:pos:R:3:Z:I:1:force:R:3
C 6.234380 6.034627 6.353341 6 1.01578291 -1.12806306 0.13905153
H 6.185564 5.930973 7.466802 1 -0.44832512 -0.42394950 -0.99573549
H 6.540286 5.186804 5.680404 1 -0.50636113 0.40798808 0.95150734
C 6.276244 7.255858 5.850705 6 0.51889527 1.88020846 1.03704492
H 6.678428 7.512850 4.871035 1 -0.51562534 -0.12938212 -0.26719746
H 6.156533 8.117579 6.568540 1 -0.06412902 -0.60957814 -0.86283558
6
energy=-373.357469 Lattice="12.718 0.0 0.0 0.0 12.718 0.0 0.0 0.0 12.718" Properties=species:S:1:pos:R:3:Z:I:1:force:R:3
C 6.361951 6.267282 5.748434 6 0.56201476 -0.06806949 -0.50361879
H 6.424696 5.420199 6.417349 1 -0.11412981 -0.54947291 -0.04879392
H 6.612830 6.116628 4.672226 1 -0.31257026 0.03860823 0.75079043
C 6.151261 7.473538 6.276393 6 0.32655193 -0.51724822 -1.63668265
H 6.198091 8.302614 5.567338 1 -0.23561760 0.45289089 0.60320489
H 5.990145 7.537556 7.325771 1 -0.22635803 0.64230265 0.84159157
6
energy=-373.299070 Lattice="12.718 0.0 0.0 0.0 12.718 0.0 0.0 0.0 12.718" Properties=species:S:1:pos:R:3:Z:I:1:force:R:3
C 6.447158 6.969430 5.352684 6 -1.00015779 0.98096809 1.99591642
H 6.615995 6.186118 4.684623 1 0.41862269 -1.94663707 -0.62827985
H 6.444986 7.875283 4.781933 1 0.07591085 1.14363676 0.19847954
C 6.097800 6.834778 6.661007 6 0.26891033 -0.18437291 -1.66617734
H 5.816146 7.646350 7.333569 1 0.15236934 0.11043256 -0.19308896
H 6.018219 5.824178 7.052022 1 0.08408439 -0.10932698 0.28883228
6
energy=-373.355239 Lattice="12.718 0.0 0.0 0.0 12.718 0.0 0.0 0.0 12.718" Properties=species:S:1:pos:R:3:Z:I:1:force:R:3
C 6.184807 7.911695 5.878615 6 -0.31785800 -1.01679541 0.18608167
H 6.190095 8.606151 5.085458 1 0.16989502 1.11197566 -0.95621863
H 5.913936 8.304127 6.851529 1 0.16082725 -0.07602500 0.33878422
C 6.335498 6.609541 5.592986 6 -0.37692554 1.46148807 0.70333451
H 6.219078 5.925609 6.413483 1 0.14894925 -0.86614922 0.02369273
H 6.475994 6.337026 4.562671 1 0.21874139 -0.61970161 -0.29957024
6
energy=-373.364573 Lattice="12.718 0.0 0.0 0.0 12.718 0.0 0.0 0.0 12.718" Properties=species:S:1:pos:R:3:Z:I:1:force:R:3
C 6.407148 8.060494 4.490756 6 0.11249253 0.30050252 -0.12247150
H 6.619195 8.077921 3.394334 1 -0.02915993 0.33117272 0.89684256
H 6.413438 8.967686 5.139873 1 0.16253857 -0.29251102 -0.94812891
C 6.106327 6.923040 5.109238 6 -0.72309706 -1.01171182 -0.44255916
H 5.790377 6.928232 6.139390 1 0.12123429 0.03348967 0.61075468
H 5.966386 5.931858 4.625255 1 0.35764945 0.64217050 0.00092354
6
energy=-373.393574 Lattice="12.718 0.0 0.0 0.0 12.718 0.0 0.0 0.0 12.718" Properties=species:S:1:pos:R:3:Z:I:1:force:R:3
C 6.060997 7.513875 5.600944 6 -0.81581367 -0.63770912 0.37400785
H 5.895260 8.483087 6.058333 1 0.06689552 0.10227187 0.39975283
H 5.719429 6.612850 6.154982 1 0.50489663 0.50890653 -0.18406386
C 6.436119 7.478873 4.328495 6 -0.31011486 -0.66462139 -0.08418106
H 6.504482 6.549047 3.751314 1 0.12463740 0.21018526 0.08842699
H 6.551334 8.417323 3.826048 1 0.43092748 0.47658722 -0.59890960
6
energy=-373.320977 Lattice="12.718 0.0 0.0 0.0 12.718 0.0 0.0 0.0 12.718" Properties=species:S:1:pos:R:3:Z:I:1:force:R:3
C 6.413863 8.029386 4.443063 6 0.31584791 -0.32269013 -0.52350115
H 6.703855 7.758139 3.406993 1 -0.24575187 0.93565031 0.25437536
H 6.502538 9.069586 4.845479 1 -0.05132388 -0.90134559 -0.44314280
C 6.063305 6.965742 5.167689 6 0.48255373 -0.83477197 0.34323069
H 5.957712 7.006114 6.243837 1 -0.45654032 0.19718318 0.36594795
H 6.055388 5.917933 4.773948 1 -0.04412736 0.92583948 0.00194221
6
energy=-373.240040 Lattice="12.718 0.0 0.0 0.0 12.718 0.0 0.0 0.0 12.718" Properties=species:S:1:pos:R:3:Z:I:1:force:R:3
C 6.478110 6.008025 5.763607 6 -0.45326833 0.94818239 -0.51821804
H 6.634143 4.966009 5.697659 1 0.60945730 -1.12663044 -0.12955130
H 6.371055 6.623450 4.892878 1 0.24261358 -0.11829448 -1.05744406
C 6.172060 6.641343 6.869001 6 -1.31148312 -0.29215209 2.53592148
H 5.708611 7.621630 6.892143 1 0.46149535 0.53666212 -0.27267957
H 6.052025 6.145314 7.859426 1 0.45151175 0.05143496 -0.55772615
6
energy=-373.345736 Lattice="12.718 0.0 0.0 0.0 12.718 0.0 0.0 0.0 12.718" Properties=species:S:1:pos:R:3:Z:I:1:force:R:3
C 6.427498 7.154886 5.127747 6 -0.16489525 -0.27057898 1.49258713
H 6.567302 6.063077 5.064751 1 -0.09481721 0.39746095 -0.54858690
H 6.713701 7.831025 4.316821 1 -0.11403622 -0.28387313 -0.01161368
C 6.017975 7.631506 6.323704 6 0.61182889 -0.40696427 0.57562464
H 6.027688 8.692838 6.551709 1 -0.28231761 0.35213443 -0.23840005
H 5.841134 7.022873 7.259947 1 0.04455159 0.20824768 -1.26677829
6
energy=-373.339132 Lattice="12.718 0.0 0.0 0.0 12.718 0.0 0.0 0.0 12.718" Properties=species:S:1:pos:R:3:Z:I:1:force:R:3
C 6.296050 7.387868 5.781017 6 -0.12043981 -1.69384809 0.29114422
H 6.487969 7.606244 4.762502 1 0.49237741 -0.00418730 -1.18704884
H 6.040687 8.246730 6.351764 1 -0.21797417 0.69957916 0.83243741
C 6.258090 6.143313 6.295244 6 -0.48615790 0.09110608 -0.33928199
H 5.890735 6.012468 7.301656 1 0.11163018 0.04304698 0.62245681
H 6.396569 5.162023 5.794902 1 0.21876813 0.85670607 -0.23018177
6
energy=-373.294359 Lattice="12.718 0.0 0.0 0.0 12.718 0.0 0.0 0.0 12.718" Properties=species:S:1:pos:R:3:Z:I:1:force:R:3
C 6.224485 6.140896 6.551651 6 -0.62263678 -0.55831494 -0.53454250
H 5.773409 6.251192 7.531865 1 0.30070256 0.54149477 0.40396482
H 6.301971 5.073568 6.314257 1 0.37229292 0.16485668 -0.39227555
C 6.360861 7.148317 5.672188 6 -0.97725593 0.22574765 2.38375372
H 6.558172 6.970931 4.645014 1 0.50501799 0.14268296 -0.96464054
H 6.091525 8.151996 6.091021 1 0.42117991 -0.52698037 -0.89649546
6
energy=-373.421724 Lattice="12.718 0.0 0.0 0.0 12.718 0.0 0.0 0.0 12.718" Properties=species:S:1:pos:R:3:Z:I:1:force:R:3
C 6.045093 7.545245 5.601593 6 -0.08672389 -0.02295174 0.60706000
H 5.952959 8.523486 6.084941 1 0.00418987 0.01102901 -0.09017379
H 5.798154 6.700193 6.301630 1 0.32684041 0.49117567 -0.98215543
C 6.434312 7.452861 4.322393 6 -0.48658471 -1.09497500 0.57422699
H 6.500896 6.467543 3.843472 1 0.09355223 0.18496529 0.00349619
H 6.620632 8.306235 3.692078 1 0.14814398 0.43676698 -0.11410924
6
energy=-373.313220 Lattice="12.718 0.0 0.0 0.0 12.718 0.0 0.0 0.0 12.718" Properties=species:S:1:pos:R:3:Z:I:1:force:R:3
C 6.348233 6.230135 5.809717 6 0.82013570 -0.01767635 -1.53775322
H 6.436651 5.387557 6.500282 1 -0.37661495 0.19931412 0.18928989
H 6.607478 5.929449 4.745111 1 -0.45121196 0.57096117 1.06597139
C 6.158852 7.496703 6.202325 6 0.35500172 0.12294664 0.21207657
H 6.235709 8.450211 5.656632 1 -0.15068732 -0.71407248 -0.60407958
H 6.021240 7.717791 7.248035 1 -0.19611412 -0.16548300 0.67098127
6
energy=-373.390665 Lattice="12.718 0.0 0.0 0.0 12.718 0.0 0.0 0.0 12.718" Properties=species:S:1:pos:R:3:Z:I:1:force:R:3
C 6.336863 6.777003 5.475773 6 0.17788807 0.44546451 0.01816280
H 6.336791 5.910048 6.069712 1 -0.13537793 -1.38014088 0.73085717
H 6.606192 6.682245 4.448103 1 0.12991074 -0.18430966 -0.84479363
C 6.124907 7.964787 6.008385 6 0.18470613 1.46665805 -0.98603471
H 6.225981 8.849412 5.337076 1 -0.22927315 -0.34985437 0.63935205
H 5.900222 8.145421 7.045432 1 -0.12976984 0.00885180 0.45128241
6
energy=-373.355148 Lattice="12.718 0.0 0.0 0.0 12.718 0.0 0.0 0.0 12.718" Properties=species:S:1:pos:R:3:Z:I:1:force:R:3
C 6.096720 6.975032 6.041865 6 0.16474664 1.01902559 -0.04435619
H 5.904103 7.131366 7.105215 1 -0.00063301 0.47209447 0.05470386
H 6.089145 5.900973 5.855248 1 0.02526265 0.08424071 -0.81130550
C 6.343116 8.005537 5.183181 6 0.14906650 -2.57127521 0.30724602
H 6.590379 7.775937 4.132343 1 -0.17614023 0.28416829 0.32034271
H 6.439526 9.012629 5.530080 1 -0.16084730 0.70128123 0.16328985
6
energy=-373.409713 Lattice="12.718 0.0 0.0 0.0 12.718 0.0 0.0 0.0 12.718" Properties=species:S:1:pos:R:3:Z:I:1:force:R:3
C 6.403555 7.314677 4.713150 6 0.25547322 0.18709005 -1.39408501
H 6.519064 6.265471 4.352186 1 -0.08799093 0.67202411 0.33158873
H 6.618569 8.114950 3.921514 1 -0.30312557 -1.02585135 1.14830897
C 6.014906 7.624881 5.951464 6 0.37617837 0.06076292 -0.10542199
H 5.956179 8.673090 6.240006 1 -0.16142631 0.04675709 0.16437846
H 5.840625 6.874845 6.728823 1 -0.07737329 0.05879243 -0.15048215
6
energy=-373.358119 Lattice="12.718 0.0 0.0 0.0 12.718 0.0 0.0 0.0 12.718" Properties=species:S:1:pos:R:3:Z:I:1:force:R:3
C 6.229449 8.141680 5.444789 6 -0.14382967 -0.63643591 -0.04283975
H 6.320357 8.881353 4.636879 1 0.06363742 -0.61235391 -0.17932532
H 6.051241 8.618333 6.390746 1 0.14492702 0.18270426 0.75637590
C 6.228959 6.792158 5.343849 6 -0.53598952 1.78345573 -1.00775540
H 6.031513 6.158951 6.189727 1 0.08084223 -0.32950665 0.39248535
H 6.196537 6.372017 4.338592 1 0.38944836 -0.39339038 0.07459496
6
energy=-373.352756 Lattice="12.718 0.0 0.0 0.0 12.718 0.0 0.0 0.0 12.718" Properties=species:S:1:pos:R:3:Z:I:1:force:R:3
C 6.123004 6.924241 5.975748 6 -0.10131234 -0.34939671 -0.53764788
H 5.890456 6.875137 7.066982 1 0.28977690 0.45098107 -0.73130968
H 6.095687 5.892261 5.503113 1 0.20004945 1.24679669 0.29684281
C 6.345526 8.058057 5.254721 6 -0.69441381 -1.75866410 -0.16801811
H 6.453064 8.028144 4.146777 1 0.14171725 -0.10776118 0.73055532
H 6.246704 9.039653 5.677966 1 0.16772295 0.52035309 0.41008611
6
energy=-373.363530 Lattice="12.718 0.0 0.0 0.0 12.718 0.0 0.0 0.0 12.718" Properties=species:S:1:pos:R:3:Z:I:1:force:R:3
C 6.429935 7.028738 5.359495 6 -0.54747310 0.47095907 1.80260017
H 6.656258 6.225155 4.748026 1 0.54231238 -1.40715908 -1.72485201
H 6.425269 8.041539 5.013065 1 0.16622451 0.52607482 -0.47508467
C 6.110062 6.768962 6.626571 6 -0.32869006 1.04133044 0.42391711
H 5.863624 7.608538 7.290550 1 0.01330084 -0.20341503 0.02004948
H 6.022974 5.789599 7.074250 1 0.15551586 -0.41649484 -0.06261875
6
energy=-373.359324 Lattice="12.718 0.0 0.0 0.0 12.718 0.0 0.0 0.0 12.718" Properties=species:S:1:pos:R:3:Z:I:1:force:R:3
C 6.044308 7.924605 5.992377 6 0.52456353 0.29448820 0.71978393
H 6.093425 9.053511 6.002337 1 -0.23297297 -1.18283531 -0.32328149
H 5.858066 7.465080 7.001313 1 -0.00209442 0.37647765 -0.90863416
C 6.384594 7.140809 4.956281 6 0.18252737 0.52594267 -0.50628348
H 6.454618 6.063440 5.023369 1 -0.22262170 -0.38455400 0.38588275
H 6.670104 7.470264 3.935461 1 -0.25042563 0.36445465 0.63497295
6
energy=-373.411988 Lattice="12.718 0.0 0.0 0.0 12.718 0.0 0.0 0.0 12.718" Properties=species:S:1:pos:R:3:Z:I:1:force:R:3
C 6.459669 7.992363 4.294388 6 -0.49861079 0.10229296 -0.22646344
H 6.503327 7.628471 3.282945 1 0.22902221 -0.24289023 -0.47182296
H 6.567680 9.051034 4.439440 1 0.42167716 0.59894971 -0.01081407
C 6.052037 7.249112 5.307746 6 -0.46731787 -0.85663099 0.32977044
H 5.915930 7.695086 6.280054 1 0.00076773 0.12119520 0.49223805
H 5.752440 6.191823 5.230175 1 0.31331280 0.27129631 -0.10424854
6
energy=-373.338663 Lattice="12.718 0.0 0.0 0.0 12.718 0.0 0.0 0.0 12.718" Properties=species:S:1:pos:R:3:Z:I:1:force:R:3
C 6.448714 6.892803 5.144408 6 0.32511828 -0.70663684 -0.45077950
H 6.607942 5.761251 5.084326 1 -0.29225391 1.53827412 0.08399697
H 6.661540 7.484683 4.210095 1 -0.23758913 -0.63837503 0.83522500
C 6.073564 7.517289 6.268595 6 0.21749851 -1.22660323 1.02462957
H 5.996487 8.575441 6.351286 1 -0.14110121 1.06823499 -0.31628808
H 5.903558 7.038742 7.275543 1 0.12893269 -0.03440858 -1.16901151
6
energy=-373.318776 Lattice="12.718 0.0 0.0 0.0 12.718 0.0 0.0 0.0 12.718" Properties=species:S:1:pos:R:3:Z:I:1:force:R:3
C 6.442694 6.506464 5.618205 6 0.58017756 0.48503176 -1.84810873
H 6.804619 5.586735 5.097831 1 -0.23218107 0.68916927 0.29201376
H 6.436318 7.468306 5.001293 1 -0.21260673 -1.31928848 0.69028873
C 6.124295 6.500303 6.904624 6 0.45994137 0.52423237 -0.43257196
H 5.835252 7.464849 7.317992 1 -0.14799075 -0.27673060 0.66982787
H 6.337956 5.601603 7.464563 1 -0.44776359 -0.09365250 0.61733517
6