LAMMPS (2 Aug 2023)
OMP_NUM_THREADS environment is not set. Defaulting to 1 thread. (src/comm.cpp:98)
  using 1 OpenMP thread(s) per MPI task
Loaded 1 plugins from /home/venkatan/deepmd-kit/lib/deepmd_lmp
# LAMMPS input script for a custom data setup

units           metal
boundary        p p p
atom_style      atomic

# Define simulation box
region box block 0.0 10.0 0.0 10.0 0.0 10.0
create_box 2 box   # 2 = number of atom types
Created orthogonal box = (0 0 0) to (10 10 10)
  1 by 1 by 1 MPI processor grid

# Define masses
mass 1 12.0107    # C
mass 2 1.00794    # H

# Create atoms (atom-ID, atom-type, x, y, z)
create_atoms 1 single 4.34039 4.909915 5.001325
Created 1 atoms
  using lattice units in orthogonal box = (0 0 0) to (10 10 10)
  create_atoms CPU = 0.000 seconds
create_atoms 1 single 5.65960 5.090085 4.998665
Created 1 atoms
  using lattice units in orthogonal box = (0 0 0) to (10 10 10)
  create_atoms CPU = 0.000 seconds
create_atoms 2 single 6.24080 4.883975 5.891915
Created 1 atoms
  using lattice units in orthogonal box = (0 0 0) to (10 10 10)
  create_atoms CPU = 0.000 seconds
create_atoms 2 single 6.16001 5.443825 4.103245
Created 1 atoms
  using lattice units in orthogonal box = (0 0 0) to (10 10 10)
  create_atoms CPU = 0.000 seconds
create_atoms 2 single 3.83999 4.556175 5.896755
Created 1 atoms
  using lattice units in orthogonal box = (0 0 0) to (10 10 10)
  create_atoms CPU = 0.000 seconds
create_atoms 2 single 3.75992 5.116025 4.108085
Created 1 atoms
  using lattice units in orthogonal box = (0 0 0) to (10 10 10)
  create_atoms CPU = 0.000 seconds

# Neighbor and interaction setup
neighbor        1.0 bin
neigh_modify    every 10 delay 0 check no

# Define force field
pair_style deepmd ../../graph.pb
Summary of lammps deepmd module ...
  >>> Info of deepmd-kit:
  installed to:       /home/venkatan/deepmd-kit
  source:             
  source branch:      HEAD
  source commit:      c45d372
  source commit at:   2024-07-07 08:06:13 +0000
  support model ver.: 1.1 
  build variant:      cuda
  build with tf inc:  /home/venkatan/deepmd-kit/lib/python3.11/site-packages/tensorflow/include;/home/venkatan/deepmd-kit/include
  build with tf lib:  /home/venkatan/deepmd-kit/lib/python3.11/site-packages/tensorflow/libtensorflow_cc.so.2
  set tf intra_op_parallelism_threads: 0
  set tf inter_op_parallelism_threads: 0
  >>> Info of lammps module:
  use deepmd-kit at:  /home/venkatan/deepmd-kitpair_coeff * *

# Define groups
group real_atom type 1 2
6 atoms in group real_atom

# Initialize velocities
velocity real_atom create 300 12345 mom yes rot no

# Minimize to remove overlaps
minimize 1.0e-4 1.0e-6 1000 10000

CITE-CITE-CITE-CITE-CITE-CITE-CITE-CITE-CITE-CITE-CITE-CITE-CITE

Your simulation uses code contributions which should be cited:

- USER-DEEPMD package:

@article{Wang_ComputPhysCommun_2018_v228_p178,
  author = {Wang, Han and Zhang, Linfeng and Han, Jiequn and E, Weinan},
  doi = {10.1016/j.cpc.2018.03.016},
  url = {https://doi.org/10.1016/j.cpc.2018.03.016},
  year = 2018,
  month = {jul},
  publisher = {Elsevier {BV}},
  volume = 228,
  journal = {Comput. Phys. Commun.},
  title = {{DeePMD-kit: A deep learning package for many-body potential energy representation and molecular dynamics}},
  pages = {178--184}
}
@misc{Zeng_JChemPhys_2023_v159_p054801,
  title  = {{DeePMD-kit v2: A software package for deep potential models}},
  author =   {Jinzhe Zeng and Duo Zhang and Denghui Lu and Pinghui Mo and Zeyu Li
         and Yixiao Chen and Mari{\'a}n Rynik and Li'ang Huang and Ziyao Li and 
         Shaochen Shi and Yingze Wang and Haotian Ye and Ping Tuo and Jiabin
         Yang and Ye Ding and Yifan Li and Davide Tisi and Qiyu Zeng and Han 
         Bao and Yu Xia and Jiameng Huang and Koki Muraoka and Yibo Wang and 
         Junhan Chang and Fengbo Yuan and Sigbj{\o}rn L{\o}land Bore and Chun
         Cai and Yinnian Lin and Bo Wang and Jiayan Xu and Jia-Xin Zhu and 
         Chenxing Luo and Yuzhi Zhang and Rhys E A Goodall and Wenshuo Liang
         and Anurag Kumar Singh and Sikai Yao and Jingchao Zhang and Renata
         Wentzcovitch and Jiequn Han and Jie Liu and Weile Jia and Darrin M
         York and Weinan E and Roberto Car and Linfeng Zhang and Han Wang},
  journal =  {J. Chem. Phys.},
  volume =   159,
  issue =    5,  
  year =    2023,
  pages  =   054801,
  doi =      {10.1063/5.0155600},
}

CITE-CITE-CITE-CITE-CITE-CITE-CITE-CITE-CITE-CITE-CITE-CITE-CITE

Switching to 'neigh_modify every 1 delay 0 check yes' setting during minimization
Generated 0 of 1 mixed pair_coeff terms from geometric mixing rule
Neighbor list info ...
  update: every = 1 steps, delay = 0 steps, check = yes
  max neighbors/atom: 2000, page size: 100000
  master list distance cutoff = 7
  ghost atom cutoff = 7
  binsize = 3.5, bins = 3 3 3
  1 neighbor lists, perpetual/occasional/extra = 1 0 0
  (1) pair deepmd, perpetual
      attributes: full, newton on
      pair build: full/bin/atomonly
      stencil: full/bin/3d
      bin: standard
Per MPI rank memory allocation (min/avg/max) = 4.184 | 4.184 | 4.184 Mbytes
   Step          Temp          E_pair         E_mol          TotEng         Press     
         0   300           -373.46157      0             -373.26768      900.20409    
         1   300           -373.46524      0             -373.27135      793.88438    
Loop time of 0.00771817 on 1 procs for 1 steps with 6 atoms

94.6% CPU use with 1 MPI tasks x 1 OpenMP threads

Minimization stats:
  Stopping criterion = energy tolerance
  Energy initial, next-to-last, final = 
     -373.461571741104  -373.461571741104  -373.465242433548
  Force two-norm initial, final = 0.64736111 0.61937974
  Force max component initial, final = 0.28591739 0.34346016
  Final line search alpha, max atom move = 0.34975138 0.12012566
  Iterations, force evaluations = 1 2

MPI task timing breakdown:
Section |  min time  |  avg time  |  max time  |%varavg| %total
---------------------------------------------------------------
Pair    | 0.0076493  | 0.0076493  | 0.0076493  |   0.0 | 99.11
Neigh   | 0          | 0          | 0          |   0.0 |  0.00
Comm    | 9.096e-06  | 9.096e-06  | 9.096e-06  |   0.0 |  0.12
Output  | 0          | 0          | 0          |   0.0 |  0.00
Modify  | 0          | 0          | 0          |   0.0 |  0.00
Other   |            | 5.978e-05  |            |       |  0.77

Nlocal:              6 ave           6 max           6 min
Histogram: 1 0 0 0 0 0 0 0 0 0
Nghost:            156 ave         156 max         156 min
Histogram: 1 0 0 0 0 0 0 0 0 0
Neighs:              0 ave           0 max           0 min
Histogram: 1 0 0 0 0 0 0 0 0 0
FullNghs:           30 ave          30 max          30 min
Histogram: 1 0 0 0 0 0 0 0 0 0

Total # of neighbors = 30
Ave neighs/atom = 5
Neighbor list builds = 0
Dangerous builds not checked


# Thermostat setup
compute real_temp real_atom temp
compute real_press all pressure real_temp
fix 1 real_atom nvt temp 300.0 300.0 0.1
fix_modify 1 temp real_temp
WARNING: Temperature for fix modify is not for group all (src/fix_nh.cpp:1411)

# Thermodynamic output
timestep 0.001
thermo 2
thermo_style custom step ke pe etotal temp press vol
thermo_modify temp real_temp press real_press
WARNING: Temperature for thermo pressure is not for group all (src/thermo.cpp:527)

# Output thermodynamic data to a separate file
fix thermo_print all print 2 "$(step) $(temp) $(press) $(ke) $(pe) $(etotal)" file thermo_data_NVT300.out screen no title "# Step Temp Press KE PE Total_Energy"

# Dump configuration
dump 1 real_atom custom 2 ethylene_NVT300.dump id type x y z vx vy vz

# Run the first 19000 steps without writing restart files
run 49550
Generated 0 of 1 mixed pair_coeff terms from geometric mixing rule
Per MPI rank memory allocation (min/avg/max) = 2.559 | 2.559 | 2.559 Mbytes
   Step         KinEng         PotEng         TotEng          Temp          Press          Volume    
         1   0.19389022    -373.46524     -373.27135      300            793.88438      1000         
         2   0.17258053    -373.44144     -373.26886      267.02822     -687.49133      1000         
         4   0.11212574    -373.37632     -373.2642       173.4885      -2174.0215      1000         
         6   0.17739408    -373.44726     -373.26987      274.47607     -987.37625      1000         
         8   0.13532518    -373.40243     -373.26711      209.38422      1444.9219      1000         
        10   0.11407291    -373.37927     -373.2652       176.50128      1586.5939      1000         
        12   0.17346442    -373.44374     -373.27028      268.39583     -1017.4756      1000         
        14   0.10704714    -373.37097     -373.26392      165.63054     -2811.2893      1000         
        16   0.15621963    -373.42299     -373.26677      241.71354     -1842.1947      1000         
        18   0.18703662    -373.45651     -373.26948      289.39565      1192.0499      1000         
        20   0.11777579    -373.3798      -373.26202      182.23063      2980.9028      1000         
        22   0.18394947    -373.45343     -373.26948      284.61901      1238.2596      1000         
        24   0.12533035    -373.38931     -373.26398      193.91956     -1222.9324      1000         
        26   0.11743994    -373.38048     -373.26304      181.71099     -1577.4553      1000         
        28   0.18910868    -373.45779     -373.26868      292.60168      440.44927      1000         
        30   0.11947546    -373.38029     -373.26082      184.86048      2428.0821      1000         
        32   0.16802665    -373.43392     -373.26589      259.98215      1156.9908      1000         
        34   0.16028123    -373.42459     -373.26431      247.99791     -1822.8461      1000         
        36   0.10173659    -373.36127     -373.25954      157.41371     -3024.874       1000         
        38   0.17887       -373.44386     -373.26499      276.7597      -1346.2154      1000         
        40   0.14867618    -373.40992     -373.26124      230.0418       1633.399       1000         
        42   0.143446      -373.40326     -373.25981      221.9493       2189.8886      1000         
        44   0.19123709    -373.45485     -373.26361      295.89491     -118.8512       1000         
        46   0.10809504    -373.3647      -373.25661      167.25192     -1804.9349      1000         
        48   0.14858318    -373.40798     -373.2594       229.89791     -949.35532      1000         
        50   0.17041753    -373.4312      -373.26079      263.68147      1761.8619      1000         
        52   0.12024477    -373.37394     -373.25369      186.0508       3006.8445      1000         
        54   0.20261083    -373.46309     -373.26048      313.49312      708.83478      1000         
        56   0.14732079    -373.40156     -373.25424      227.94464     -2132.6099      1000         
        58   0.13784055    -373.39088     -373.25304      213.27617     -2604.578       1000         
        60   0.19337088    -373.45103     -373.25766      299.19644     -413.26499      1000         
        62   0.11530045    -373.36434     -373.24904      178.40062      1898.3709      1000         
        64   0.17054544    -373.42453     -373.25398      263.87939      999.64506      1000         
        66   0.16953538    -373.42119     -373.25165      262.31656     -1556.0418      1000         
        68   0.12053467    -373.3671      -373.24657      186.49936     -2355.8057      1000         
        70   0.19741069    -373.44894     -373.25153      305.44712     -365.73806      1000         
        72   0.15651101    -373.40286     -373.24635      242.16438      2689.7009      1000         
        74   0.15079886    -373.39579     -373.24499      233.32615      2983.1029      1000         
        76   0.19596021    -373.44351     -373.24755      303.20284      191.4082       1000         
        78   0.12566647    -373.36591     -373.24025      194.43962     -2058.1115      1000         
        80   0.17909789    -373.42191     -373.24281      277.11232     -1649.81        1000         
        82   0.19330304    -373.43614     -373.24284      299.09148      830.45548      1000         
        84   0.12910049    -373.36435     -373.23525      199.75297      2010.7366      1000         
        86   0.19705727    -373.43793     -373.24087      304.90027     -163.68218      1000         
        88   0.14618298    -373.38038     -373.2342       226.18415     -2670.1805      1000         
        90   0.1540726     -373.38667     -373.2326       238.3915      -2612.4359      1000         
        92   0.2276103     -373.46408     -373.23647      352.17398      185.32291      1000         
        94   0.15663929    -373.38368     -373.22704      242.36286      2946.0829      1000         
        96   0.19661415    -373.42736     -373.23074      304.21465      2183.8935      1000         
        98   0.17400548    -373.40121     -373.22721      269.233       -563.63931      1000         
       100   0.12069452    -373.34227     -373.22157      186.74668     -1785.5543      1000         
       102   0.21017622    -373.43629     -373.22611      325.1988      -314.31209      1000         
       104   0.18632498    -373.4063      -373.21998      288.29455      2197.6673      1000         
       106   0.18822296    -373.40613     -373.21791      291.23124      1999.0151      1000         
       108   0.22230532    -373.44135     -373.21904      343.96576     -1078.1249      1000         
       110   0.13888558    -373.34948     -373.21059      214.89313     -3245.7066      1000         
       112   0.19078015    -373.40318     -373.2124       295.18789     -2368.3736      1000         
       114   0.2186786     -373.43021     -373.21153      338.35426      800.67715      1000         
       116   0.17078577    -373.37398     -373.20319      264.25124      2604.9887      1000         
       118   0.24187139    -373.44964     -373.20777      374.2397       804.77699      1000         
       120   0.17242357    -373.37187     -373.19945      266.78535     -1557.306       1000         
       122   0.16107007    -373.35779     -373.19672      249.21845     -1524.7883      1000         
       124   0.2360433     -373.43589     -373.19985      365.22209      1042.9652      1000         
       126   0.180692      -373.37014     -373.18945      279.57883      3309.6715      1000         
       128   0.24592234    -373.43829     -373.19237      380.5076       1802.9421      1000         
       130   0.2335556     -373.42104     -373.18749      361.37295     -1666.8722      1000         
       132   0.16298133    -373.34295     -373.17997      252.17569     -3198.2472      1000         
       134   0.23463629    -373.41814     -373.1835       363.04507     -1534.8301      1000         
       136   0.19464898    -373.37076     -373.17611      301.17401      1530.2262      1000         
       138   0.20199888    -373.37485     -373.17285      312.54627      1911.0397      1000         
       140   0.27039634    -373.44447     -373.17407      418.37543     -757.93762      1000         
       142   0.19245891    -373.3559      -373.16344      297.78539     -2538.401       1000         
       144   0.24103055    -373.40491     -373.16388      372.9387      -1294.5168      1000         
       146   0.26148241    -373.4234      -373.16192      404.5832       2075.8         1000         
       148   0.19392209    -373.34511     -373.15118      300.04932      3709.2631      1000         
       150   0.28348266    -373.43952     -373.15603      438.62346      1212.9778      1000         
       152   0.22706859    -373.37304     -373.14597      351.33581     -1988.765       1000         
       154   0.22019652    -373.3619      -373.14171      340.70288     -2532.1819      1000         
       156   0.29912969    -373.44343     -373.1443       462.83359     -131.60602      1000         
       158   0.20501627    -373.33638     -373.13136      317.21498      2356.8252      1000         
       160   0.25650061    -373.39006     -373.13356      396.87502      1094.1889      1000         
       162   0.2684244     -373.39722     -373.12879      415.3243      -2162.5768      1000         
       164   0.21027912    -373.32972     -373.11944      325.35801     -3259.83        1000         
       166   0.31369033    -373.43625     -373.12256      485.3628      -1010.3977      1000         
       168   0.27902634    -373.39335     -373.11432      431.72834      2640.7352      1000         
       170   0.24934123    -373.35706     -373.10772      385.79753      3266.2184      1000         
       172   0.31411023    -373.42384     -373.10973      486.01249      246.40759      1000         
       174   0.22055913    -373.31783     -373.09727      341.26394     -2103.2407      1000         
       176   0.28349032    -373.38083     -373.09734      438.63531     -1414.9744      1000         
       178   0.34010286    -373.43644     -373.09634      526.23005      1553.0013      1000         
       180   0.25895998    -373.34171     -373.08275      400.68032      2978.9872      1000         
       182   0.34636128    -373.43467     -373.0883       535.91349      204.90934      1000         
       184   0.27187196    -373.34886     -373.07699      420.6586      -3110.1536      1000         
       186   0.25285455    -373.32472     -373.07187      391.23358     -3399.7303      1000         
       188   0.36161448    -373.43731     -373.07569      559.51427     -441.93028      1000         
       190   0.2748803     -373.33714     -373.06226      425.3133       2798.0637      1000         
       192   0.32275176    -373.38664     -373.06389      499.38326      2055.6281      1000         
       194   0.33268119    -373.3924      -373.05972      514.74673     -1068.553       1000         
       196   0.24680578    -373.29595     -373.04914      381.87453     -2212.1945      1000         
       198   0.36014097    -373.41337     -373.05323      557.23437     -185.87575      1000         
       200   0.345827      -373.39242     -373.0466       535.08682      3141.456       1000         
       202   0.32200963    -373.36094     -373.03893      498.23499      3263.2663      1000         
       204   0.40585084    -373.44915     -373.0433       627.95974     -518.11718      1000         
       206   0.28051992    -373.31051     -373.02999      434.03931     -3405.4125      1000         
       208   0.32001433    -373.35071     -373.03069      495.14772     -2856.7961      1000         
       210   0.37501974    -373.40751     -373.03249      580.2558       437.62293      1000         
       212   0.27905459    -373.2976      -373.01854      431.77205      2570.1425      1000         
       214   0.39696809    -373.42454     -373.02757      614.21576      408.00979      1000         
       216   0.33528509    -373.3529      -373.01762      518.77567     -2422.3297      1000         
       218   0.30545188    -373.31813     -373.01268      472.61572     -2312.6387      1000         
       220   0.42744433    -373.44685     -373.0194       661.37066      858.89305      1000         
       222   0.32943343    -373.33676     -373.00733      509.72159      4121.428       1000         
       224   0.3735649     -373.38456     -373.01099      578.00477      2954.6954      1000         
       226   0.38793276    -373.39772     -373.00979      600.23568     -1025.1939      1000         
       228   0.28418771    -373.28464     -373.00045      439.71436     -3050.6004      1000         
       230   0.39933267    -373.40662     -373.00728      617.87439     -1667.2432      1000         
       232   0.3785264     -373.38302     -373.00449      585.68154      1567.8419      1000         
       234   0.33055419    -373.32829     -372.99774      511.45569      2096.9734      1000         
       236   0.43141715    -373.43851     -373.0071       667.51767     -1160.4372      1000         
       238   0.30792877    -373.30439     -372.99646      476.44813     -3429.874       1000         
       240   0.35045397    -373.34979     -372.99934      542.24597     -2259.2786      1000         
       242   0.42069442    -373.42688     -373.00619      650.92674      1602.8848      1000         
       244   0.29864088    -373.29225     -372.99361      462.07727      4191.7041      1000         
       246   0.40577196    -373.41271     -373.00694      627.8377       1973.8138      1000         
       248   0.33505096    -373.33585     -373.0008       518.4134      -1492.5835      1000         
       250   0.2976165     -373.29612     -372.9985       460.49229     -2361.2879      1000         
       252   0.43935142    -373.44911     -373.00976      679.7941      -162.64802      1000         
       254   0.35246875    -373.3551      -373.00263      545.36338      2628.9009      1000         
       256   0.37630303    -373.3852      -373.0089       582.24139      1555.6396      1000         
       258   0.38108993    -373.39402     -373.01293      589.64799     -2082.6445      1000         
       260   0.26469624    -373.27159     -373.00689      409.55584     -3635.8332      1000         
       262   0.38280851    -373.40008     -373.01727      592.3071      -1725.9493      1000         
       264   0.38291727    -373.40369     -373.02078      592.47538      2110.0869      1000         
       266   0.32770363    -373.34518     -373.01747      507.04512      3279.1588      1000         
       268   0.41144991    -373.44342     -373.03197      636.623        325.38169      1000         
       270   0.26342209    -373.28919     -373.02577      407.58439     -2191.9948      1000         
       272   0.28763543    -373.319       -373.03137      445.04891     -1689.1592      1000         
       274   0.38028458    -373.42361     -373.04333      588.4019       1385.742       1000         
       276   0.30011449    -373.33662     -373.03651      464.35734      3471.8782      1000         
       278   0.40951902    -373.46397     -373.05445      633.6354       1118.7453      1000         
       280   0.31855156    -373.3731      -373.05455      492.88443     -2362.5168      1000         
       282   0.24283117    -373.29863     -373.0558       375.72473     -3210.9295      1000         
       284   0.34930205    -373.42045     -373.07114      540.46366     -871.90215      1000         
       286   0.25651681    -373.32564     -373.06912      396.90007      2322.2477      1000         
       288   0.29874595    -373.3776      -373.07886      462.23986      1917.0886      1000         
       290   0.34202122    -373.43127     -373.08925      529.19827     -1202.0448      1000         
       292   0.23646853    -373.32458     -373.08811      365.88004     -2656.2757      1000         
       294   0.32069943    -373.42249     -373.10179      496.20775     -980.43863      1000         
       296   0.29514251    -373.40555     -373.11041      456.66436      2486.5619      1000         
       298   0.22960565    -373.34025     -373.11064      355.26133      3476.1752      1000         
       300   0.31930872    -373.44783     -373.12852      494.05595      466.74131      1000         
       302   0.20768676    -373.33553     -373.12784      321.34695     -2357.3895      1000         
       304   0.22740603    -373.36314     -373.13574      351.85792     -2341.3404      1000         
       306   0.29241086    -373.44307     -373.15066      452.43777      297.28428      1000         
       308   0.19259008    -373.34017     -373.14758      297.98834      2381.0851      1000         
       310   0.27561704    -373.44042     -373.1648       426.45324      647.29841      1000         
       312   0.2253119     -373.39432     -373.169        348.61774     -2194.0059      1000         
       314   0.17771122    -373.34971     -373.172        274.96676     -2683.9681      1000         
       316   0.26786253    -373.45526     -373.1874       414.45494     -254.40365      1000         
       318   0.18255257    -373.37075     -373.18819      282.45762      2869.4362      1000         
       320   0.19415751    -373.39079     -373.19664      300.41357      2646.3022      1000         
       322   0.21881981    -373.42481     -373.20599      338.57274     -319.13194      1000         
       324   0.14051262    -373.34585     -373.20534      217.41058     -2142.3742      1000         
       326   0.21655569    -373.43278     -373.21623      335.06954     -1191.1809      1000         
       328   0.20831626    -373.43144     -373.22312      322.32095      1477.9349      1000         
       330   0.15988613    -373.38347     -373.22359      247.38658      2204.0751      1000         
       332   0.21962936    -373.45591     -373.23628      339.82533     -344.26801      1000         
       334   0.13380781    -373.36883     -373.23502      207.03645     -2672.7508      1000         
       336   0.14738352    -373.38736     -373.23997      228.04171     -2324.771       1000         
       338   0.1905366     -373.43986     -373.24932      294.81105      468.54832      1000         
       340   0.11683807    -373.36209     -373.24526      180.77972      2689.7725      1000         
       342   0.18541906    -373.44144     -373.25602      286.89286      1436.6762      1000         
       344   0.15375569    -373.4105      -373.25674      237.90116     -1094.3638      1000         
       346   0.12633971    -373.38353     -373.25719      195.48131     -1794.0441      1000         
       348   0.19795795    -373.46461     -373.26665      306.29387      20.624812      1000         
       350   0.13448156    -373.39881     -373.26433      208.07893      2353.1992      1000         
       352   0.14518566    -373.41439     -373.2692       224.64104      1765.2721      1000         
       354   0.15519184    -373.42849     -373.27329      240.12327     -1090.9524      1000         
       356   0.09379265    -373.36418     -373.27039      145.1223      -2737.0191      1000         
       358   0.15825638    -373.4351      -373.27684      244.86492     -1615.8356      1000         
       360   0.15285271    -373.43145     -373.2786       236.50401      1176.3893      1000         
       362   0.12272192    -373.39989     -373.27716      189.88362      2179.0407      1000         
       364   0.17074975    -373.45501     -373.28426      264.19551      172.73616      1000         
       366   0.10273475    -373.38337     -373.28064      158.95813     -1787.248       1000         
       368   0.12023985    -373.40351     -373.28327      186.0432      -1403.2259      1000         
       370   0.15552223    -373.44357     -373.28805      240.63446      1074.3552      1000         
       372   0.10465557    -373.38807     -373.28342      161.93014      2751.4267      1000         
       374   0.16143465    -373.45169     -373.29026      249.78256      1152.2344      1000         
       376   0.12686837    -373.41545     -373.28858      196.29929     -1556.9631      1000         
       378   0.098259641   -373.38568     -373.28742      152.03393     -2352.2411      1000         
       380   0.15461618    -373.44792     -373.2933       239.23256     -562.00581      1000         
       382   0.10900453    -373.39832     -373.28932      168.65915      1770.3073      1000         
       384   0.13618296    -373.42871     -373.29253      210.71145      1392.4595      1000         
       386   0.1522286     -373.44676     -373.29453      235.53834     -1052.6063      1000         
       388   0.09716827    -373.38796     -373.29079      150.34529     -2301.0577      1000         
       390   0.14493129    -373.44051     -373.29558      224.24745     -923.33629      1000         
       392   0.12406489    -373.41898     -373.29492      191.96156      1845.1955      1000         
       394   0.096307098   -373.38926     -373.29295      149.01283      2621.8543      1000         
       396   0.14528924    -373.44314     -373.29785      224.8013       402.58439      1000         
       398   0.098955748   -373.39265     -373.29369      153.111       -1779.2596      1000         
       400   0.12570908    -373.42126     -373.29555      194.50556     -1605.0687      1000         
       402   0.15697803    -373.45549     -373.29852      242.88697      644.05007      1000         
       404   0.10652835    -373.40028     -373.29375      164.82783      2109.7379      1000         
       406   0.14808606    -373.4468      -373.29872      229.12873      510.49231      1000         
       408   0.11424071    -373.41058     -373.29634      176.76091     -1979.7696      1000         
       410   0.091413098   -373.38612     -373.2947       141.4405      -2410.9279      1000         
       412   0.14801191    -373.44744     -373.29942      229.014       -272.09389      1000         
       414   0.10946671    -373.40457     -373.29511      169.37426      2230.6821      1000         
       416   0.1331517     -373.43047     -373.29732      206.02128      1912.0025      1000         
       418   0.14391363    -373.44228     -373.29837      222.67286     -534.34713      1000         
       420   0.090566933   -373.38466     -373.29409      140.13126     -1847.6469      1000         
       422   0.14000701    -373.43809     -373.29809      216.62827     -635.55038      1000         
       424   0.12887468    -373.42563     -373.29676      199.40359      1799.3512      1000         
       426   0.10891574    -373.4034      -373.29449      168.52177      2183.066       1000         
       428   0.15290164    -373.45155     -373.29865      236.57971     -284.032        1000         
       430   0.097421456   -373.39122     -373.2938       150.73704     -2460.8402      1000         
       432   0.11485046    -373.40993     -373.29508      177.70436     -2069.5342      1000         
       434   0.14438846    -373.4417      -373.29731      223.40755      461.88844      1000         
       436   0.10068911    -373.39267     -373.29198      155.79297      2179.5219      1000         
       438   0.1579495     -373.45467     -373.29672      244.3901       794.55658      1000         
       440   0.13341508    -373.42713     -373.29371      206.4288      -1478.0604      1000         
       442   0.10583891    -373.39734     -373.2915       163.76109     -1725.4668      1000         
       444   0.15146812    -373.44706     -373.29559      234.36167      412.72828      1000         
       446   0.098779651   -373.38936     -373.29058      152.83853      2656.6933      1000         
       448   0.11951141    -373.41167     -373.29216      184.9161       1902.2461      1000         
       450   0.14305326    -373.43608     -373.29303      221.34164     -963.97095      1000         
       452   0.097600312   -373.38572     -373.28812      151.01377     -2496.8057      1000         
       454   0.15384072    -373.44545     -373.2916       238.03272     -1324.3649      1000         
       456   0.1442493     -373.4342      -373.28995      223.19223      1195.4192      1000         
       458   0.11249734    -373.39885     -373.28636      174.06346      1773.9943      1000         
       460   0.1580514     -373.44863     -373.29057      244.54778     -409.63071      1000         
       462   0.10186209    -373.38668     -373.28482      157.60788     -2170.0006      1000         
       464   0.12385537    -373.40963     -373.28578      191.63737     -1377.1391      1000         
       466   0.15774921    -373.44555     -373.2878       244.0802       1344.0204      1000         
       468   0.10322862    -373.38435     -373.28112      159.72226      2949.9319      1000         
       470   0.16210242    -373.44817     -373.28607      250.81578      1170.8462      1000         
       472   0.13400681    -373.4159      -373.28189      207.34436     -1537.217       1000         
       474   0.10936205    -373.38861     -373.27925      169.21233     -2130.5961      1000         
       476   0.16722541    -373.45034     -373.28311      258.74242     -229.72702      1000         
       478   0.11567604    -373.39288     -373.2772       178.98176      1920.968       1000         
       480   0.13629012    -373.41467     -373.27838      210.87725      1196.0418      1000         
       482   0.15536602    -373.43388     -373.27852      240.39278     -1431.7166      1000         
       484   0.10159882    -373.37432     -373.27272      157.20054     -2521.308       1000         
       486   0.16470442    -373.44085     -373.27614      254.84177     -904.9599       1000         
       488   0.1534498     -373.42728     -373.27383      237.42786      1918.9277      1000         
       490   0.11877291    -373.38791     -373.26914      183.77345      2533.6186      1000         
       492   0.17541587    -373.44892     -373.2735       271.41524      150.90601      1000         
       494   0.11523052    -373.3815      -373.26627      178.29242     -1838.9871      1000         
       496   0.14858207    -373.41573     -373.26715      229.89619     -1321.5675      1000         
       498   0.18659698    -373.45538     -373.26878      288.71541      1109.2485      1000         
       500   0.11583472    -373.37618     -373.26034      179.22728      2440.6121      1000         
       502   0.17167629    -373.43742     -373.26574      265.62912      429.5888       1000         
       504   0.12827575    -373.38831     -373.26003      198.47688     -2231.2853      1000         
       506   0.11008913    -373.36721     -373.25712      170.33732     -2555.7349      1000         
       508   0.19537444    -373.45656     -373.26119      302.29649     -299.688        1000         
       510   0.1526574     -373.40632     -373.25366      236.20181      2193.7418      1000         
       512   0.18184076    -373.43683     -373.25499      281.35627      1626.2431      1000         
       514   0.18125695    -373.43472     -373.25346      280.45295     -904.66754      1000         
       516   0.10318049    -373.34978     -373.2466       159.6478      -1916.474       1000         
       518   0.17035191    -373.42074     -373.25039      263.57995     -339.17364      1000         
       520   0.15984543    -373.40679     -373.24695      247.32361      2313.9065      1000         
       522   0.14699808    -373.38929     -373.24229      227.44533      2520.4043      1000         
       524   0.21789167    -373.46403     -373.24614      337.13666     -336.35321      1000         
       526   0.1386032     -373.37572     -373.23711      214.45621     -2582.9963      1000         
       528   0.16845707    -373.4063      -373.23785      260.64811     -2097.483       1000         
       530   0.20187643    -373.44084     -373.23897      312.35681      546.59901      1000         
       532   0.13191602    -373.361       -373.22908      204.10935      2174.14        1000         
       534   0.21557083    -373.45107     -373.2355       333.5457       382.38786      1000         
       536   0.16482734    -373.3927      -373.22788      255.03195     -1964.3915      1000         
       538   0.14063312    -373.36506     -373.22443      217.59703     -1960.1971      1000         
       540   0.21957517    -373.44826     -373.22869      339.74149      551.73908      1000         
       542   0.15002504    -373.36868     -373.21866      232.12884      3103.8443      1000         
       544   0.20265627    -373.42442     -373.22177      313.56342      2162.9179      1000         
       546   0.21277096    -373.43152     -373.21875      329.21355     -906.39241      1000         
       548   0.14420166    -373.35543     -373.21123      223.11852     -2402.9083      1000         
       550   0.22657049    -373.44186     -373.21529      350.56512     -1116.1251      1000         
       552   0.19114242    -373.40107     -373.20993      295.74842      1547.9807      1000         
       554   0.16362207    -373.36877     -373.20515      253.16709      1833.5708      1000         
       556   0.23218299    -373.44096     -373.20877      359.24915     -889.69141      1000         
       558   0.15048793    -373.34956     -373.19907      232.84506     -2824.5169      1000         
       560   0.20306147    -373.40318     -373.20012      314.19037     -1901.736       1000         
       562   0.24898811    -373.45026     -373.20127      385.25117      1260.2104      1000         
       564   0.16889005    -373.35854     -373.18965      261.31806      3226.0777      1000         
       566   0.25430698    -373.45107     -373.19677      393.48088      1339.1257      1000         
       568   0.18411447    -373.37185     -373.18774      284.8743      -1376.1748      1000         
       570   0.16458889    -373.34909     -373.1845       254.66301     -1870.4172      1000         
       572   0.25533464    -373.44481     -373.18948      395.07095      234.85601      1000         
       574   0.17517139    -373.35293     -373.17776      271.03697      2532.0084      1000         
       576   0.23865718    -373.42082     -373.18216      369.26647      1326.1884      1000         
       578   0.2388597     -373.41699     -373.17813      369.57981     -1852.4623      1000         
       580   0.16551329    -373.33593     -373.17042      256.09331     -3210.5002      1000         
       582   0.26013433    -373.43516     -373.17502      402.49735     -1497.348       1000         
       584   0.22878876    -373.39802     -373.16923      353.99738      1808.9606      1000         
       586   0.20949294    -373.37423     -373.16474      324.14158      2591.5045      1000         
       588   0.27610377    -373.44438     -373.16827      427.20635      56.616843      1000         
       590   0.17883248    -373.33695     -373.15812      276.70166     -1948.2091      1000         
       592   0.23033899    -373.38993     -373.15959      356.396       -1255.809       1000         
       594   0.2739653     -373.43515     -373.16119      423.89755      1635.7519      1000         
       596   0.18956636    -373.33905     -373.14949      293.30984      3243.4429      1000         
       598   0.28043101    -373.43755     -373.15712      433.90173      865.53636      1000         
       600   0.21491905    -373.36335     -373.14844      332.53723     -2302.4738      1000         
       602   0.2027054     -373.34811     -373.14541      313.63944     -2979.4975      1000         
       604   0.29546757    -373.44636     -373.15089      457.16732     -647.13909      1000         
       606   0.21046338    -373.34966     -373.1392       325.64311      2156.9574      1000         
       608   0.27237343    -373.4165      -373.14413      421.43451      1436.3479      1000         
       610   0.26768438    -373.40834     -373.14066      414.1793      -1391.3135      1000         
       612   0.18973382    -373.323       -373.13326      293.56895     -2508.6632      1000         
       614   0.28384018    -373.42242     -373.13858      439.17664     -606.60477      1000         
       616   0.25589514    -373.38907     -373.13317      395.9382       2765.5742      1000         
       618   0.24979507    -373.37984     -373.13005      386.49975      3320.5496      1000         
       620   0.31483085    -373.44865     -373.13382      487.1275       259.13454      1000         
       622   0.21557282    -373.34004     -373.12446      333.54879     -2403.8607      1000         
       624   0.26255597    -373.3892      -373.12665      406.24428     -2184.7253      1000         
       626   0.29165946    -373.42054     -373.12888      451.27516      598.08385      1000         
       628   0.19656078    -373.31476     -373.1182       304.13208      2370.1192      1000         
       630   0.28687871    -373.41323     -373.12635      443.87806      278.6755       1000         
       632   0.23844123    -373.35779     -373.11935      368.93233     -2562.8578      1000         
       634   0.2386027     -373.35539     -373.11678      369.18216     -2812.3084      1000         
       636   0.34082196    -373.46428     -373.12346      527.34269      10.909712      1000         
       638   0.25102542    -373.36406     -373.11304      388.40344      3210.956       1000         
       640   0.28816167    -373.40602     -373.11786      445.86314      2591.9655      1000         
       642   0.27809771    -373.39437     -373.11627      430.29151     -563.73541      1000         
       644   0.20324973    -373.31305     -373.10981      314.48166     -2239.3286      1000         
       646   0.3033639     -373.41959     -373.11623      469.38506     -884.71614      1000         
       648   0.28355682    -373.39615     -373.11259      438.7382       2061.9419      1000         
       650   0.26236952    -373.37257     -373.1102       405.95578      2395.5827      1000         
       652   0.30848513    -373.42361     -373.11513      477.30896     -722.26817      1000         
       654   0.20825523    -373.31556     -373.1073       322.22651     -3255.8064      1000         
       656   0.26043       -373.37056     -373.11013      402.95483     -2647.8085      1000         
       658   0.32137528    -373.43537     -373.114        497.25347      658.87261      1000         
       660   0.25385331    -373.35964     -373.10579      392.77893      2948.6102      1000         
       662   0.32055395    -373.43439     -373.11384      495.98266      1238.4616      1000         
       664   0.24631314    -373.35505     -373.10873      381.11228     -1530.8183      1000         
       666   0.21603182    -373.32277     -373.10674      334.25898     -1921.3082      1000         
       668   0.31125415    -373.42576     -373.1145       481.59337      577.99552      1000         
       670   0.25216887    -373.35899     -373.10683      390.17265      3300.4396      1000         
       672   0.31360074    -373.42604     -373.11244      485.22419      2177.0026      1000         
       674   0.31705084    -373.43048     -373.11343      490.56241     -1471.5857      1000         
       676   0.21772324    -373.32536     -373.10763      336.87605     -3379.9488      1000         
       678   0.2814195     -373.39616     -373.11474      435.4312      -1920.3317      1000         
       680   0.24995819    -373.36297     -373.11301      386.75214      1393.1856      1000         
       682   0.23568976    -373.34705     -373.11136      364.67507      2278.8064      1000         
       684   0.31559372    -373.43451     -373.11891      488.30785     -324.78774      1000         
       686   0.23204521    -373.34468     -373.11263      359.03597     -2457.034       1000         
       688   0.26763199    -373.38365     -373.11602      414.09823     -1582.5416      1000         
       690   0.31353927    -373.4351      -373.12157      485.12907      1724.9758      1000         
       692   0.22934928    -373.34388     -373.11453      354.86466      3776.5189      1000         
       694   0.30158869    -373.42554     -373.12395      466.63833      1583.6273      1000         
       696   0.25480676    -373.37618     -373.12137      394.25418     -1841.8702      1000         
       698   0.2237547     -373.34391     -373.12015      346.20834     -2767.432       1000         
       700   0.31013906    -373.43936     -373.12922      479.86803     -583.79399      1000         
       702   0.23218103    -373.35599     -373.12381      359.24612      2156.6673      1000         
       704   0.2614958     -373.39029     -373.12879      404.60391      1407.9373      1000         
       706   0.28346065    -373.41633     -373.13287      438.5894      -1771.3392      1000         
       708   0.19899337    -373.32709     -373.12809      307.89594     -3157.0262      1000         
       710   0.27493537    -373.41088     -373.13594      425.39851     -1244.8866      1000         
       712   0.26404899    -373.40133     -373.13728      408.55437      2349.4599      1000         
       714   0.22561672    -373.36071     -373.13509      349.08938      3407.7108      1000         
       716   0.29458787    -373.43955     -373.14497      455.80619      668.1552       1000         
       718   0.2053838     -373.34554     -373.14016      317.78365     -1914.9128      1000         
       720   0.22888424    -373.37298     -373.14409      354.14511     -1675.8205      1000         
       722   0.28256356    -373.43415     -373.15158      437.20137      961.31545      1000         
       724   0.19831266    -373.34414     -373.14583      306.84269      2653.3424      1000         
       726   0.26582116    -373.42171     -373.15589      411.2964       496.86025      1000         
       728   0.2309783     -373.38626     -373.15528      357.38517     -2658.86        1000         
       730   0.19763992    -373.35231     -373.15467      305.80179     -3181.4424      1000         
       732   0.28826634    -373.45305     -373.16478      446.0251      -607.14865      1000         
       734   0.21865799    -373.38076     -373.1621       338.32237      2540.9287      1000         
       736   0.22503642    -373.39173     -373.16669      348.19149      2281.1484      1000         
       738   0.24268257    -373.41532     -373.17264      375.49482     -604.34738      1000         
       740   0.15457495    -373.32322     -373.16864      239.16877     -2058.1836      1000         
       742   0.22951136    -373.4061      -373.17659      355.11543     -617.47211      1000         
       744   0.24007147    -373.42031     -373.18024      371.45475      2272.9917      1000         
       746   0.20421879    -373.38264     -373.17842      315.98106      2818.6438      1000         
       748   0.26859263    -373.45827     -373.18968      415.5846      -150.97955      1000         
       750   0.17341897    -373.35958     -373.18616      268.3255      -2769.4285      1000         
       752   0.18335572    -373.3736      -373.19024      283.70032     -2475.5005      1000         
       754   0.23669239    -373.43552     -373.19883      366.2264       278.5771       1000         
       756   0.15768803    -373.35157     -373.19388      243.98554      2319.2731      1000         
       758   0.2280297     -373.43259     -373.20456      352.82291      760.25331      1000         
       760   0.19745478    -373.40259     -373.20514      305.51533     -1836.9541      1000         
       762   0.15635308    -373.36132     -373.20497      241.92001     -2124.5151      1000         
       764   0.23549261    -373.45054     -373.21505      364.37002      275.44465      1000         
       766   0.17396508    -373.38747     -373.2135       269.17048      3021.4329      1000         
       768   0.18996307    -373.40846     -373.21849      293.92365      2443.4764      1000         
       770   0.21489726    -373.44001     -373.22511      332.50351     -662.33474      1000         
       772   0.13034056    -373.35246     -373.22212      201.67169     -2405.5555      1000         
       774   0.18909033    -373.41907     -373.22998      292.5733      -1345.7142      1000         
       776   0.18052755    -373.41445     -373.23393      279.32438      1252.4394      1000         
       778   0.13575766    -373.36749     -373.23173      210.05339      1885.4751      1000         
       780   0.20926563    -373.45191     -373.24264      323.78987     -575.97247      1000         
       782   0.14008827    -373.37991     -373.23982      216.754       -2593.5924      1000         
       784   0.16275637    -373.40682     -373.24406      251.82761     -1906.5438      1000         
       786   0.21110799    -373.46384     -373.25273      326.6405       965.21895      1000         
       788   0.1248873     -373.37306     -373.24817      193.23405      2994.4867      1000         
       790   0.17485503    -373.43292     -373.25807      270.54748      1487.3622      1000         
       792   0.13676924    -373.39485     -373.25808      211.61858     -1151.0927      1000         
       794   0.10803179    -373.3659      -373.25787      167.15405     -1815.3055      1000         
       796   0.19218028    -373.45925     -373.26707      297.35427     -51.979613      1000         
       798   0.14304878    -373.40852     -373.26548      221.33471      2092.7389      1000         
       800   0.15791741    -373.42832     -373.2704       244.34044      1352.1051      1000         
       802   0.16619282    -373.44163     -373.27544      257.14472     -1433.235       1000         
       804   0.088696369   -373.3612      -373.2725       137.23699     -2757.6396      1000         
       806   0.14613467    -373.42552     -373.27939      226.1094      -1369.6668      1000         
       808   0.13850919    -373.4204      -373.28189      214.31075      1446.3722      1000         
       810   0.11335451    -373.3939      -373.28055      175.38972      2310.6797      1000         
       812   0.17455601    -373.46398     -373.28943      270.08482      232.54538      1000         
       814   0.10064457    -373.38672     -373.28608      155.72405     -1594.9603      1000         
       816   0.11846697    -373.40799     -373.28953      183.30008     -1130.715       1000         
       818   0.15549261    -373.45125     -373.29576      240.58864      1191.4914      1000         
       820   0.096685892   -373.38784     -373.29115      149.59892      2577.4666      1000         
       822   0.16063611    -373.4608      -373.30016      248.54701      747.27793      1000         
       824   0.11856144    -373.41756     -373.299        183.44624     -1884.41        1000         
       826   0.088188812   -373.3869      -373.29871      136.45167     -2469.7494      1000         
       828   0.14715075    -373.45324     -373.30609      227.68155     -592.30832      1000         
       830   0.087726494   -373.39012     -373.30239      135.73634      1720.2722      1000         
       832   0.11863894    -373.42558     -373.30694      183.56616      1338.6917      1000         
       834   0.13580909    -373.44556     -373.30975      210.13297     -902.10311      1000         
       836   0.080421516   -373.38712     -373.3067       124.43358     -1869.2688      1000         
       838   0.13725544    -373.45005     -373.31279      212.37086     -451.71441      1000         
       840   0.11351891    -373.42654     -373.31302      175.6441       2071.1935      1000         
       842   0.092253609   -373.40423     -373.31198      142.741        2478.3846      1000         
       844   0.14239552    -373.46062     -373.31822      220.32394      86.867401      1000         
       846   0.078921807   -373.39323     -373.31431      122.11313     -1996.4376      1000         
       848   0.10324653    -373.42047     -373.31723      159.74999     -1760.9906      1000         
       850   0.12728588    -373.44846     -373.32118      196.94529      427.10597      1000         
       852   0.075130694   -373.39145     -373.31632      116.24727      1824.8461      1000         
       854   0.13684028    -373.46032     -373.32348      211.72849      333.18031      1000         
       856   0.10134255    -373.42244     -373.3211       156.80402     -1788.6228      1000         
       858   0.085852398   -373.40653     -373.32067      132.83661     -1959.4374      1000         
       860   0.13597251    -373.46244     -373.32647      210.38583      143.48859      1000         
       862   0.073276966   -373.39483     -373.32155      113.37906      2406.3283      1000         
       864   0.1029385     -373.42866     -373.32573      159.27338      1853.9166      1000         
       866   0.11071768    -373.43714     -373.32642      171.30986     -550.78646      1000         
       868   0.072145852   -373.39555     -373.3234       111.62892     -1803.497       1000         
       870   0.13086469    -373.45936     -373.32849      202.48265     -723.54316      1000         
       872   0.10291177    -373.42976     -373.32685      159.23202      1473.1508      1000         
       874   0.088096516   -373.41426     -373.32616      136.30886      1692.107       1000         
       876   0.1252        -373.45535     -373.33015      193.71787     -559.11015      1000         
       878   0.071006984   -373.39697     -373.32597      109.86679     -2334.1272      1000         
       880   0.10311901    -373.43167     -373.32855      159.55267     -1747.4982      1000         
       882   0.12014176    -373.45088     -373.33073      185.89142      723.8828       1000         
       884   0.072687758   -373.39882     -373.32614      112.46739      2243.4994      1000         
       886   0.1203959     -373.45195     -373.33155      186.28464      867.49653      1000         
       888   0.081480751   -373.40966     -373.32818      126.0725      -1196.1819      1000         
       890   0.080043755   -373.40776     -373.32772      123.84909     -1454.324       1000         
       892   0.13418009    -373.46624     -373.33206      207.61247      414.7082       1000         
       894   0.08730159    -373.41424     -373.32694      135.0789       2265.6856      1000         
       896   0.11507898    -373.44559     -373.33051      178.05795      1346.3825      1000         
       898   0.10288196    -373.43264     -373.32976      159.1859      -1201.4907      1000         
       900   0.060590609   -373.38721     -373.32662      93.74987      -2411.738       1000         
       902   0.11386472    -373.44466     -373.33079      176.17917     -1139.8595      1000         
       904   0.093406106   -373.42151     -373.32811      144.52422      1258.0826      1000         
       906   0.097698868   -373.42545     -373.32775      151.16627      1660.6329      1000         
       908   0.13300698    -373.46336     -373.33036      205.79735     -316.2405       1000         
       910   0.078077683   -373.40384     -373.32576      120.80705     -1804.3706      1000         
       912   0.10276135    -373.43071     -373.32795      158.99928     -1006.2944      1000         
       914   0.10763714    -373.43622     -373.32858      166.54343      1450.1379      1000         
       916   0.071873751   -373.39637     -373.32449      111.20791      2636.0313      1000         
       918   0.12335931    -373.45216     -373.3288       190.86983      835.57319      1000         
       920   0.089436017   -373.41445     -373.32501      138.38143     -1581.604       1000         
       922   0.088732109   -373.4131      -373.32437      137.29229     -2032.7382      1000         
       924   0.13015727    -373.45761     -373.32745      201.38809     -212.94237      1000         
       926   0.083790154   -373.40599     -373.3222       129.64577      1627.8958      1000         
       928   0.11447923    -373.43955     -373.32507      177.12998      814.63749      1000         
       930   0.10981739    -373.43372     -373.3239       169.91686     -1425.6402      1000         
       932   0.076942484   -373.39748     -373.32054      119.05059     -2158.6131      1000         
       934   0.12861288    -373.45282     -373.32421      198.99851     -411.71407      1000         
       936   0.099475215   -373.42023     -373.32075      153.91475      2187.7477      1000         
       938   0.095176629   -373.41526     -373.32008      147.26369      2433.2203      1000         
       940   0.1241161     -373.44618     -373.32207      192.04079      92.882505      1000         
       942   0.0755304     -373.39276     -373.31723      116.86572     -1789.0274      1000         
       944   0.1107737     -373.43007     -373.3193       171.39652     -1310.3205      1000         
       946   0.12368965    -373.44291     -373.31922      191.38096      873.5678       1000         
       948   0.094211723   -373.40934     -373.31513      145.77072      1828.435       1000         
       950   0.13779433    -373.45648     -373.31868      213.20466     -17.011619      1000         
       952   0.094588194   -373.40904     -373.31445      146.35322     -2170.3624      1000         
       954   0.088326625   -373.40191     -373.31358      136.6649      -2097.2427      1000         
       956   0.12963829    -373.44601     -373.31638      200.5851       262.4706       1000         
       958   0.087370546   -373.39834     -373.31097      135.18559      2403.154       1000         
       960   0.12638349    -373.44003     -373.31364      195.54905      1587.1081      1000         
       962   0.12699289    -373.43921     -373.31222      196.49195     -831.02042      1000         
       964   0.090930045   -373.39928     -373.30835      140.69309     -1771.6998      1000         
       966   0.14097087    -373.4528      -373.31183      218.11963     -283.92304      1000         
       968   0.10821658    -373.41637     -373.30816      167.43998      1961.6637      1000         
       970   0.10043598    -373.40744     -373.307        155.40132      1823.0149      1000         
       972   0.13322391    -373.44251     -373.30929      206.133       -749.3962       1000         
       974   0.08151203    -373.38543     -373.30392      126.1209      -2519.5253      1000         
       976   0.11917949    -373.42507     -373.3059       184.40254     -1679.928       1000         
       978   0.13786346    -373.44385     -373.30599      213.31163      898.48537      1000         
       980   0.10344137    -373.4045      -373.30106      160.05145      2130.8864      1000         
       982   0.1536747     -373.45885     -373.30517      237.77584      394.78142      1000         
       984   0.1096088     -373.41003     -373.30042      169.59412     -1663.2351      1000         
       986   0.10052985    -373.39988     -373.29935      155.54656     -1495.4812      1000         
       988   0.14381178    -373.44617     -373.30236      222.51526      817.59948      1000         
       990   0.093159603   -373.38956     -373.2964       144.14281      2705.8321      1000         
       992   0.13374158    -373.43308     -373.29934      206.93398      1461.0013      1000         
       994   0.1357828     -373.43358     -373.2978       210.09229     -1327.3943      1000         
       996   0.095522043   -373.3891      -373.29357      147.79814     -2401.8772      1000         
       998   0.15241264    -373.44963     -373.29722      235.82309     -876.30234      1000         
      1000   0.12331897    -373.41695     -373.29363      190.80742      1503.3998      1000         
      1002   0.11525157    -373.40716     -373.29191      178.32499      1520.4997      1000         
      1004   0.15513933    -373.44986     -373.29472      240.04201     -850.79818      1000         
      1006   0.09595447    -373.38463     -373.28868      148.46722     -2272.9788      1000         
      1008   0.13192467    -373.4227      -373.29077      204.12273     -1086.8483      1000         
      1010   0.14420035    -373.43534     -373.29114      223.11648      1679.2727      1000         
      1012   0.096721517   -373.38177     -373.28505      149.65404      2841.118       1000         
      1014   0.16333346    -373.45384     -373.2905       252.72053      767.00059      1000         
      1016   0.12288482    -373.40781     -373.28493      190.13567     -1640.8775      1000         
      1018   0.12327586    -373.40723     -373.28396      190.74071     -1778.6522      1000         
      1020   0.17329609    -373.46065     -373.28735      268.13538      285.04158      1000         
      1022   0.10373026    -373.38393     -373.2802       160.49844      2025.8757      1000         
      1024   0.13778244    -373.42153     -373.28375      213.18627      706.40037      1000         
      1026   0.13323559    -373.415       -373.28176      206.15108     -1912.6161      1000         
      1028   0.097020542   -373.37447     -373.27745      150.11672     -2588.6085      1000         
      1030   0.17544334    -373.45716     -373.28172      271.45774     -621.21242      1000         
      1032   0.14755613    -373.42529     -373.27773      228.30878      2132.4669      1000         
      1034   0.13261169    -373.40831     -373.2757       205.18573      2303.206       1000         
      1036   0.16408374    -373.44254     -373.27846      253.88142     -110.55465      1000         
      1038   0.091629513   -373.36327     -373.27164      141.77535     -1674.9461      1000         
      1040   0.14386908    -373.41829     -373.27442      222.60394     -793.3357       1000         
      1042   0.16686598    -373.44171     -373.27485      258.18627      1570.6574      1000         
      1044   0.1198774     -373.38794     -373.26806      185.48239      2277.0598      1000         
      1046   0.18502744    -373.45905     -373.27403      286.28691     -161.13768      1000         
      1048   0.11792172    -373.38513     -373.26721      182.45642     -2576.8393      1000         
      1050   0.11584684    -373.38231     -373.26647      179.24604     -2455.6316      1000         
      1052   0.18057524    -373.45093     -373.27035      279.39817      33.036069      1000         
      1054   0.12368202    -373.38591     -373.26223      191.36915      2233.3486      1000         
      1056   0.18172601    -373.44878     -373.26705      281.17872      1230.7275      1000         
      1058   0.16085044    -373.42448     -373.26363      248.87864     -1116.2565      1000         
      1060   0.10462974    -373.36355     -373.25892      161.89018     -1665.5435      1000         
      1062   0.17696931    -373.44076     -373.26379      273.81883      185.03768      1000         
      1064   0.13437266    -373.39283     -373.25846      207.91043      2596.7666      1000         
      1066   0.14364719    -373.40149     -373.25784      222.2606       2170.7509      1000         
      1068   0.1887807     -373.44869     -373.25991      292.09421     -784.77214      1000         
      1070   0.11492314    -373.36743     -373.2525       177.81683     -2624.4128      1000         
      1072   0.17181096    -373.42745     -373.25564      265.83749     -1745.1913      1000         
      1074   0.17760551    -373.43284     -373.25523      274.8032       905.44161      1000         
      1076   0.1269475     -373.3751      -373.24815      196.42172      1972.9556      1000         
      1078   0.20539739    -373.46005     -373.25465      317.80467     -116.16014      1000         
      1080   0.13250728    -373.37938     -373.24687      205.02419     -2124.1753      1000         
      1082   0.13615735    -373.38253     -373.24637      210.67182     -1679.4312      1000         
      1084   0.1962916     -373.44663     -373.25034      303.71558      990.15261      1000         
      1086   0.1256148     -373.36625     -373.24063      194.35967      3103.874       1000         
      1088   0.20216445    -373.44919     -373.24703      312.80245      1665.6143      1000         
      1090   0.17788561    -373.42012     -373.24223      275.23659     -1189.787       1000         
      1092   0.13083832    -373.36848     -373.23764      202.44186     -2195.3285      1000         
      1094   0.21102423    -373.45402     -373.24299      326.5109      -591.97086      1000         
      1096   0.14511979    -373.38098     -373.23586      224.5391       1836.9021      1000         
      1098   0.15340871    -373.38964     -373.23623      237.36429      1488.0436      1000         
      1100   0.19461155    -373.43211     -373.2375       301.11609     -1268.7624      1000         
      1102   0.12583318    -373.35583     -373.23         194.69757     -2791.7444      1000         
      1104   0.20036443    -373.43395     -373.23358      310.01733     -1521.2165      1000         
      1106   0.2039062     -373.4364      -373.23249      315.4974       1553.502       1000         
      1108   0.15018571    -373.37541     -373.22522      232.37744      2838.6262      1000         
      1110   0.22543471    -373.45691     -373.23147      348.80777      685.998        1000         
      1112   0.14490356    -373.368       -373.2231       224.20455     -1580.651       1000         
      1114   0.15942212    -373.3824      -373.22298      246.66864     -1501.3184      1000         
      1116   0.22107514    -373.448       -373.22692      342.06234      852.54706      1000         
      1118   0.1409738     -373.3574      -373.21642      218.12416      2681.116       1000         
      1120   0.21394881    -373.43711     -373.22316      331.03601      961.42584      1000         
      1122   0.17896076    -373.39662     -373.21766      276.90015     -2028.7545      1000         
      1124   0.14170832    -373.35504     -373.21334      219.26065     -2969.1183      1000         
      1126   0.23653494    -373.45538     -373.21885      365.98279     -1037.125       1000         
      1128   0.1800628     -373.39103     -373.21096      278.60529      1868.4374      1000         
      1130   0.19693546    -373.40892     -373.21199      304.7118       1907.7168      1000         
      1132   0.21807107    -373.43024     -373.21217      337.41424     -574.18559      1000         
      1134   0.13457996    -373.33918     -373.2046       208.23117     -1978.3799      1000         
      1136   0.2054616     -373.41389     -373.20842      317.90403     -702.97681      1000         
      1138   0.20910068    -373.41591     -373.20681      323.53466      2239.1949      1000         
      1140   0.17519102    -373.37567     -373.20048      271.06734      3127.3083      1000         
      1142   0.25638958    -373.46246     -373.20607      396.70322      407.81035      1000         
      1144   0.17486149    -373.37248     -373.19762      270.55747     -2414.2198      1000         
      1146   0.18509427    -373.38267     -373.19758      286.39032     -2625.8665      1000         
      1148   0.22954754    -373.4306      -373.20105      355.17141     -164.97396      1000         
      1150   0.14573667    -373.33654     -373.1908       225.49359      2011.4118      1000         
      1152   0.22635764    -373.42385     -373.19749      350.23578      736.80611      1000         
      1154   0.20190649    -373.39412     -373.19221      312.40331     -1777.8686      1000         
      1156   0.17215798    -373.36001     -373.18785      266.37442     -2250.1218      1000         
      1158   0.26262047    -373.45585     -373.19323      406.34408      80.160254      1000         
      1160   0.19947866    -373.38452     -373.18504      308.64681      3101.0567      1000         
      1162   0.21510571    -373.40142     -373.18632      332.82604      2832.9831      1000         
      1164   0.23717099    -373.42362     -373.18645      366.96693     -293.11666      1000         
      1166   0.16524273    -373.34443     -373.17919      255.67467     -2427.753       1000         
      1168   0.24025299    -373.42336     -373.18311      371.73561     -1662.2599      1000         
      1170   0.23516569    -373.41636     -373.1812       363.86419      1092.2669      1000         
      1172   0.18345088    -373.3586      -373.17515      283.84755      2058.0831      1000         
      1174   0.24691082    -373.42726     -373.18035      382.03705     -368.00317      1000         
      1176   0.17625766    -373.34904     -373.17278      272.71772     -2739.9872      1000         
      1178   0.20371577    -373.37657     -373.17285      315.20276     -2341.0759      1000         
      1180   0.26909011    -373.4455      -373.17641      416.35434      716.32955      1000         
      1182   0.20065998    -373.36772     -373.16706      310.47464      3212.7459      1000         
      1184   0.25996957    -373.43248     -373.17251      402.24243      1888.3196      1000         
      1186   0.21797598    -373.38579     -373.16781      337.26711     -1047.2498      1000         
      1188   0.17711708    -373.34075     -373.16363      274.04747     -2065.8683      1000         
      1190   0.26329614    -373.43238     -373.16908      407.38951     -226.39646      1000         
      1192   0.21775354    -373.37979     -373.16204      336.92294      2381.5731      1000         
      1194   0.24048109    -373.40366     -373.16317      372.08854      1862.0143      1000         
      1196   0.26033192    -373.42425     -373.16392      402.80307     -1318.868       1000         
      1198   0.17986474    -373.33648     -373.15662      278.29883     -3225.1287      1000         
      1200   0.24934491    -373.40997     -373.16062      385.80323     -1970.7268      1000         
      1202   0.25698448    -373.41631     -373.15932      397.62369      1324.3966      1000         
      1204   0.2162707     -373.37026     -373.15399      334.6286       2703.693       1000         
      1206   0.27369889    -373.43307     -373.15937      423.48535      471.1199       1000         
      1208   0.19185443    -373.34405     -373.15219      296.85009     -1907.439       1000         
      1210   0.20357963    -373.35588     -373.1523       314.99211     -1615.9568      1000         
      1212   0.26860325    -373.4248      -373.15619      415.60103      1196.3256      1000         
      1214   0.21553719    -373.3635      -373.14796      333.49366      3303.6199      1000         
      1216   0.2903487     -373.44391     -373.15357      449.24706      1499.5923      1000         
      1218   0.26014086    -373.41021     -373.15007      402.50746     -1875.9782      1000         
      1220   0.20048331    -373.34602     -373.14554      310.20128     -3026.194       1000         
      1222   0.27075557    -373.42217     -373.15142      418.93124     -1035.3911      1000         
      1224   0.21689507    -373.36245     -373.14555      335.59465      1900.7376      1000         
      1226   0.23308663    -373.37923     -373.14614      360.64733      1775.158       1000         
      1228   0.2761631     -373.42521     -373.14905      427.29814     -1108.2842      1000         
      1230   0.19625876    -373.33799     -373.14173      303.66478     -2706.7263      1000         
      1232   0.25819507    -373.40403     -373.14583      399.49679     -1174.3597      1000         
      1234   0.27082076    -373.41677     -373.14595      419.03212      2234.4358      1000         
      1236   0.22175352    -373.36178     -373.14003      343.11198      3533.1747      1000         
      1238   0.29634458    -373.44371     -373.14736      458.52428      895.16988      1000         
      1240   0.22193248    -373.36269     -373.14076      343.38887     -2037.6691      1000         
      1242   0.2201123     -373.36094     -373.14082      340.57257     -2216.8147      1000         
      1244   0.28009488    -373.42611     -373.14601      433.38166      273.49122      1000         
      1246   0.20120982    -373.3392      -373.13799      311.32539      2347.6569      1000         
      1248   0.26679823    -373.41074     -373.14394      412.80819      709.86455      1000         
      1250   0.26474718    -373.40722     -373.14247      409.63466     -2394.4748      1000         
      1252   0.21401799    -373.35201     -373.13799      331.14304     -3092.5432      1000         
      1254   0.29829779    -373.44302     -373.14472      461.54643     -614.12815      1000         
      1256   0.24566346    -373.38652     -373.14085      380.10705      2772.5515      1000         
      1258   0.22458393    -373.36439     -373.1398       347.49138      2959.0556      1000         
      1260   0.26916814    -373.4143      -373.14514      416.47507     -37.257978      1000         
      1262   0.1867998     -373.32494     -373.13814      289.02923     -2057.0668      1000         
      1264   0.25436126    -373.39698     -373.14262      393.56486     -1158.7323      1000         
      1266   0.29092892    -373.43619     -373.14526      450.14481      1579.0008      1000         
      1268   0.2240533     -373.36271     -373.13865      346.67035      2521.025       1000         
      1270   0.28657204    -373.4339      -373.14733      443.40356     -198.41735      1000         
      1272   0.21044135    -373.35213     -373.14168      325.60903     -2957.5936      1000         
      1274   0.20774652    -373.34964     -373.1419       321.43941     -2754.2881      1000         
      1276   0.2908478     -373.43977     -373.14892      450.0193       198.38996      1000         
      1278   0.21658142    -373.35837     -373.14179      335.10935      2831.4436      1000         
      1280   0.27186564    -373.4204      -373.14854      420.64883      1669.8285      1000         
      1282   0.25666107    -373.40484     -373.14818      397.12328     -1252.9973      1000         
      1284   0.18291104    -373.32685     -373.14394      283.01227     -2114.3905      1000         
      1286   0.26793973    -373.41928     -373.15134      414.57438     -133.38291      1000         
      1288   0.24065065    -373.39001     -373.14936      372.3509       2662.9068      1000         
      1290   0.23997317    -373.38895     -373.14898      371.30264      2418.4645      1000         
      1292   0.29262692    -373.44859     -373.15597      452.77207     -823.13003      1000         
      1294   0.18972925    -373.33933     -373.1496       293.56186     -2888.6507      1000         
      1296   0.23532731    -373.38991     -373.15459      364.11426     -1925.296       1000         
      1298   0.26072032    -373.41999     -373.15927      403.40403      1031.5925      1000         
      1300   0.17895875    -373.33099     -373.15203      276.89703      2431.0568      1000         
      1302   0.26678566    -373.42981     -373.16303      412.78874      192.8235       1000         
      1304   0.20801086    -373.36629     -373.15828      321.8484      -2213.9432      1000         
      1306   0.20916509    -373.36832     -373.15915      323.63431     -1942.3707      1000         
      1308   0.29297581    -373.4609      -373.16793      453.3119       808.28295      1000         
      1310   0.20151917    -373.36281     -373.16129      311.80403      3192.393       1000         
      1312   0.24882102    -373.41827     -373.16945      384.99264      1798.5953      1000         
      1314   0.23198123    -373.40209     -373.17011      358.93698     -1343.0817      1000         
      1316   0.16164041    -373.32849     -373.16685      250.10092     -2476.6099      1000         
      1318   0.25346601    -373.42888     -373.17542      392.17968     -794.2188       1000         
      1320   0.22400611    -373.39897     -373.17496      346.59734      1883.5742      1000         
      1322   0.21239809    -373.38774     -373.17534      328.63663      1827.4158      1000         
      1324   0.26052116    -373.44397     -373.18345      403.09588     -1025.5339      1000         
      1326   0.16072064    -373.33899     -373.17827      248.6778      -2728.7799      1000         
      1328   0.21327652    -373.39745     -373.18418      329.99579     -1564.1754      1000         
      1330   0.24397385    -373.43414     -373.19016      377.49277      1485.8793      1000         
      1332   0.17182984    -373.35629     -373.18446      265.86669      2951.3422      1000         
      1334   0.25117392    -373.44757     -373.19639      388.63321      793.77817      1000         
      1336   0.17628345    -373.36907     -373.19279      272.75762     -1677.1785      1000         
      1338   0.17086806    -373.36554     -373.19467      264.37856     -1754.0323      1000         
      1340   0.24775861    -373.452       -373.20424      383.34881      520.32726      1000         
      1342   0.16908093    -373.36796     -373.19888      261.6134       2536.6297      1000         
      1344   0.23054934    -373.43912     -373.20857      356.72146      1077.861       1000         
      1346   0.2118528     -373.4221      -373.21025      327.79292     -1881.1597      1000         
      1348   0.14329773    -373.35179     -373.20849      221.71989     -2835.3039      1000         
      1350   0.21785679    -373.43582     -373.21796      337.0827      -986.83082      1000         
      1352   0.16692258    -373.38442     -373.2175       258.27386      1910.2347      1000         
      1354   0.16497759    -373.38482     -373.21984      255.26444      2166.2654      1000         
      1356   0.21302844    -373.44071     -373.22768      329.61194     -283.27218      1000         
      1358   0.13049085    -373.35449     -373.22399      201.90424     -1845.7928      1000         
      1360   0.18956418    -373.42042     -373.23085      293.30646     -896.72814      1000         
      1362   0.20728272    -373.44401     -373.23673      320.72178      1704.1687      1000         
      1364   0.14710767    -373.38052     -373.23342      227.61489      2664.6877      1000         
      1366   0.21137502    -373.45609     -373.24472      327.05366      263.44463      1000         
      1368   0.13421708    -373.37651     -373.24229      207.6697      -2303.8486      1000         
      1370   0.13240472    -373.37728     -373.24488      204.86549     -2442.7432      1000         
      1372   0.1942826     -373.44819     -373.25391      300.60712     -119.37289      1000         
      1374   0.12493701    -373.37439     -373.24946      193.31096      2094.2279      1000         
      1376   0.18687361    -373.44595     -373.25908      289.14344      1134.6943      1000         
      1378   0.16503765    -373.42578     -373.26075      255.35737     -1244.3698      1000         
      1380   0.11014087    -373.37002     -373.25988      170.41736     -1922.822       1000         
      1382   0.17273236    -373.44153     -373.2688       267.26313     -127.85904      1000         
      1384   0.12052032    -373.38793     -373.26741      186.47715      2409.4138      1000         
      1386   0.13797899    -373.4093      -373.27132      213.49038      2244.8254      1000         
      1388   0.17461252    -373.45198     -373.27737      270.17224     -431.0939       1000         
      1390   0.10619536    -373.38114     -373.27494      164.31261     -2256.4222      1000         
      1392   0.15018127    -373.43149     -373.28131      232.37058     -1550.2141      1000         
      1394   0.14163973    -373.42657     -373.28493      219.15452      914.54467      1000         
      1396   0.097839497   -373.38058     -373.28274      151.38386      1955.1218      1000         
      1398   0.16170014    -373.45317     -373.29147      250.19334      47.5174        1000         
      1400   0.1126903     -373.40228     -373.28959      174.36203     -1994.0313      1000         
      1402   0.12531291    -373.4177      -373.29238      193.89257     -1818.1647      1000         
      1404   0.16395176    -373.46357     -373.29962      253.67721      553.5558       1000         
      1406   0.088725173   -373.38412     -373.2954       137.28156      2556.7376      1000         
      1408   0.1272018     -373.42989     -373.30269      196.81519      1477.0178      1000         
      1410   0.10662093    -373.4095      -373.30288      164.97107     -990.12748      1000         
[...]
     49274   0.12551798    -373.35594     -373.23042      194.20987     -3180.8861      1000         
     49276   0.1976114     -373.43261     -373.235        305.75767     -1671.8637      1000         
     49278   0.17355519    -373.40484     -373.23128      268.53627      1246.2575      1000         
     49280   0.16201896    -373.39001     -373.22799      250.68665      1922.4922      1000         
     49282   0.22502419    -373.4573      -373.23228      348.17257     -246.8517       1000         
     49284   0.14012918    -373.36425     -373.22412      216.8173      -1756.6477      1000         
     49286   0.1727016     -373.39872     -373.22602      267.21555     -753.94727      1000         
     49288   0.20094763    -373.42857     -373.22762      310.9197       1999.1759      1000         
     49290   0.13894363    -373.35822     -373.21928      214.98294      3255.3104      1000         
     49292   0.2236101     -373.44977     -373.22616      345.9846       862.74326      1000         
     49294   0.17598661    -373.39563     -373.21964      272.29834     -2138.4662      1000         
     49296   0.15951183    -373.37706     -373.21755      246.80744     -2713.7028      1000         
     49298   0.22299421    -373.44517     -373.22218      345.03165     -579.61211      1000         
     49300   0.14538433    -373.3592      -373.21382      224.94843      1798.4956      1000         
     49302   0.19109328    -373.40856     -373.21747      295.67239      1019.8073      1000         
     49304   0.20614777    -373.42228     -373.21613      318.9657      -1536.0084      1000         
     49306   0.1503091     -373.36052     -373.21021      232.56836     -2342.0098      1000         
     49308   0.22384245    -373.43874     -373.2149       346.34411     -390.99357      1000         
     49310   0.19006653    -373.40099     -373.21092      294.08373      2621.4355      1000         
     49312   0.17154328    -373.37938     -373.20783      265.42331      2957.2147      1000         
     49314   0.23293281    -373.44491     -373.21198      360.40933      145.94729      1000         
     49316   0.16363778    -373.36809     -373.20445      253.19139     -2097.0297      1000         
     49318   0.20604687    -373.41259     -373.20654      318.80959     -1640.7144      1000         
     49320   0.2294153     -373.4374      -373.20798      354.96681      873.87415      1000         
     49322   0.15067112    -373.35057     -373.19989      233.12851      2182.3856      1000         
     49324   0.21148672    -373.4176      -373.20611      327.2265       78.883175      1000         
     49326   0.17022847    -373.37064     -373.20041      263.38894     -2510.2859      1000         
     49328   0.17235801    -373.37094     -373.19859      266.68392     -2591.4993      1000         
     49330   0.25698187    -373.46029     -373.20331      397.61966     -0.75136        1000         
     49332   0.19307037    -373.38884     -373.19577      298.73148      2647.235       1000         
     49334   0.21552339    -373.4139      -373.19838      333.4723       1947.1773      1000         
     49336   0.20963477    -373.40688     -373.19724      324.36103     -757.98307      1000         
     49338   0.1479353     -373.3396      -373.19166      228.89546     -1857.8514      1000         
     49340   0.22657367    -373.4228      -373.19622      350.57003     -259.6326       1000         
     49342   0.21756191    -373.41109     -373.19353      336.62644      2345.6356      1000         
     49344   0.19835617    -373.38833     -373.18998      306.91003      2350.3025      1000         
     49346   0.24505219    -373.43931     -373.19426      379.16125     -686.52127      1000         
     49348   0.16182753    -373.34872     -373.1869       250.39046     -2969.2345      1000         
     49350   0.19513898    -373.38386     -373.18872      301.93217     -2325.7236      1000         
     49352   0.24028464    -373.43112     -373.19084      371.78457      493.81266      1000         
     49354   0.18869926    -373.37215     -373.18345      291.9682       2172.253       1000         
     49356   0.25157236    -373.44105     -373.18947      389.24969      468.97178      1000         
     49358   0.19621462    -373.38028     -373.18406      303.59647     -1760.2973      1000         
     49360   0.16767984    -373.34948     -373.1818       259.44553     -1559.6479      1000         
     49362   0.24088196    -373.42743     -373.18655      372.70878      1061.569       1000         
     49364   0.1935225     -373.37369     -373.18016      299.43104      3416.5391      1000         
     49366   0.23528493    -373.41792     -373.18263      364.04868      2180.9821      1000         
     49368   0.25181414    -373.43435     -373.18253      389.6238      -1209.456       1000         
     49370   0.17997995    -373.35663     -373.17665      278.4771      -2839.3746      1000         
     49372   0.23356981    -373.41442     -373.18085      361.39494     -1499.0612      1000         
     49374   0.2102045     -373.38908     -373.17888      325.24255      1145.1286      1000         
     49376   0.1851648     -373.36003     -373.17486      286.49945      1486.3004      1000         
     49378   0.25592828    -373.43652     -373.18059      395.98946     -1027.8285      1000         
     49380   0.1855931     -373.35903     -373.17344      287.16214     -2623.7038      1000         
     49382   0.21492058    -373.38984     -373.17492      332.5396      -1289.7591      1000         
     49384   0.25956605    -373.43756     -373.178        401.61807      1956.382       1000         
     49386   0.18963816    -373.35947     -373.16983      293.42093      3681.5625      1000         
     49388   0.2546336     -373.43142     -373.17678      393.98625      1523.7143      1000         
     49390   0.21156199    -373.38342     -373.17186      327.34296     -1506.6193      1000         
     49392   0.18898789    -373.35867     -373.16968      292.41479     -2144.0135      1000         
     49394   0.26597085    -373.44107     -373.1751       411.52801     -181.40809      1000         
     49396   0.20112222    -373.36982     -373.1687       311.18983      1909.0814      1000         
     49398   0.22463749    -373.3957      -373.17107      347.57425      794.73533      1000         
     49400   0.24418765    -373.41616     -373.17197      377.82358     -2155.1845      1000         
     49402   0.17695412    -373.343       -373.16605      273.79532     -3077.6352      1000         
     49404   0.25108623    -373.42201     -373.17092      388.49753     -971.66615      1000         
     49406   0.24099717    -373.41084     -373.16984      372.88705      2320.7947      1000         
     49408   0.2038423     -373.36919     -373.16535      315.39853      3012.8959      1000         
     49410   0.26345133    -373.43536     -373.1719       407.62963      382.15486      1000         
     49412   0.17647192    -373.34097     -373.1645       273.04924     -1714.4332      1000         
     49414   0.21159066    -373.37822     -373.16663      327.38732     -1137.7357      1000         
     49416   0.26786889    -373.43852     -373.17065      414.46479      1359.4364      1000         
     49418   0.1971981     -373.35953     -373.16233      305.11818      2580.4854      1000         
     49420   0.26569952    -373.43593     -373.17023      411.10819      189.769        1000         
     49422   0.21141664    -373.37684     -373.16543      327.11805     -2719.6748      1000         
     49424   0.18012843    -373.3433      -373.16317      278.70684     -2946.5974      1000         
     49426   0.26959712    -373.43936     -373.16976      417.13882     -406.18724      1000         
     49428   0.2120878     -373.37547     -373.16338      328.15653      2336.0349      1000         
     49430   0.2450317     -373.41174     -373.16671      379.12955      1725.2911      1000         
     49432   0.25628238    -373.42425     -373.16797      396.53735     -984.66578      1000         
     49434   0.16796903    -373.3298      -373.16183      259.893       -1977.0589      1000         
     49436   0.23810884    -373.40571     -373.1676       368.41803     -220.525        1000         
     49438   0.22704863    -373.39359     -373.16654      351.30492      2616.7745      1000         
     49440   0.20840773    -373.37145     -373.16304      322.46247      2812.6411      1000         
     49442   0.2864929     -373.45681     -373.17031      443.2811      -284.36727      1000         
     49444   0.19703427    -373.36024     -373.1632       304.8647      -2695.879       1000         
     49446   0.21850897    -373.38418     -373.16567      338.0918      -2203.1175      1000         
     49448   0.25518953    -373.42526     -373.17007      394.84642      503.29242      1000         
     49450   0.17428919    -373.33639     -373.1621       269.67196      2156.414       1000         
     49452   0.25369402    -373.42423     -373.17054      392.53247      272.00387      1000         
     49454   0.21928813    -373.38593     -373.16664      339.29735     -2214.5402      1000         
     49456   0.19769505    -373.36254     -373.16484      305.8871      -2177.2668      1000         
     49458   0.2785757     -373.45059     -373.17202      431.03108      494.89838      1000         
     49460   0.20308081    -373.36882     -373.16574      314.22031      3222.0081      1000         
     49462   0.22722276    -373.39673     -373.16951      351.57435      2407.5433      1000         
     49464   0.24424121    -373.41553     -373.17129      377.90645     -712.45078      1000         
     49466   0.17830711    -373.34453     -373.16622      275.88876     -2273.4867      1000         
     49468   0.25453636    -373.42715     -373.17262      393.8358      -1013.1868      1000         
     49470   0.23254235    -373.40425     -373.17171      359.80518      1568.5157      1000         
     49472   0.19515622    -373.36425     -373.16909      301.95885      1810.1227      1000         
     49474   0.25023999    -373.42602     -373.17578      387.18816     -954.13148      1000         
     49476   0.17891852    -373.34898     -373.17006      276.83478     -2973.5747      1000         
     49478   0.22155456    -373.39486     -373.1733       342.80414     -2056.3452      1000         
     49480   0.26728064    -373.44504     -373.17776      413.5546       1079.106       1000         
     49482   0.19862277    -373.37057     -373.17195      307.32253      3049.0031      1000         
     49484   0.24669966    -373.42599     -373.17929      381.71033      1372.3252      1000         
     49486   0.19352654    -373.3697      -373.17618      299.43729     -1234.601       1000         
     49488   0.17648923    -373.35191     -373.17542      273.07602     -1663.8567      1000         
     49490   0.2576035     -373.43999     -373.18238      398.58148      405.75646      1000         
     49492   0.21062095    -373.38858     -373.17796      325.88692      2516.0145      1000         
     49494   0.2379685     -373.42014     -373.18217      368.20089      1359.1962      1000         
     49496   0.23282004    -373.41684     -373.18402      360.23484     -1771.1684      1000         
     49498   0.16290066    -373.34312     -373.18022      252.05086     -3148.4564      1000         
     49500   0.22466202    -373.41134     -373.18668      347.6122      -1500.9943      1000         
     49502   0.20772372    -373.39384     -373.18611      321.40413      1545.7576      1000         
     49504   0.19441849    -373.3799      -373.18548      300.81737      2275.8075      1000         
     49506   0.2427203     -373.43449     -373.19177      375.55319     -5.5980831      1000         
     49508   0.17183644    -373.35918     -373.18735      265.87691     -1829.0769      1000         
     49510   0.2014756     -373.39258     -373.19111      311.73662     -1027.6002      1000         
     49512   0.232337      -373.42734     -373.195        359.48745      1701.884       1000         
     49514   0.18961326    -373.38129     -373.19167      293.3824       3047.3286      1000         
     49516   0.24257398    -373.44145     -373.19887      375.32679      856.20587      1000         
     49518   0.19219316    -373.38921     -373.19702      297.3742      -2112.4166      1000         
     49520   0.16771574    -373.36499     -373.19727      259.50108     -2697.3282      1000         
     49522   0.22083585    -373.42454     -373.2037       341.69209     -552.44629      1000         
     49524   0.1762137     -373.37711     -373.2009       272.64971      1790.8985      1000         
     49526   0.20699464    -373.41217     -373.20518      320.27605      1124.7563      1000         
     49528   0.21269862    -373.42077     -373.20807      329.10163     -1398.4319      1000         
     49530   0.15533466    -373.36082     -373.20548      240.34424     -2281.2683      1000         
     49532   0.20473972    -373.41669     -373.21195      316.78708     -355.72613      1000         
     49534   0.1842704     -373.39641     -373.21214      285.11558      2608.4182      1000         
     49536   0.17561559    -373.38804     -373.21242      271.72426      2988.583       1000         
     49538   0.22462622    -373.44384     -373.21921      347.55681      244.31658      1000         
     49540   0.16374258    -373.38005     -373.21631      253.35355     -2120.3721      1000         
     49542   0.18189787    -373.40243     -373.22054      281.44464     -1797.9806      1000         
     49544   0.19466695    -373.41923     -373.22457      301.20181      585.38885      1000         
     49546   0.14774198    -373.37        -373.22226      228.59634      1867.8452      1000         
     49548   0.2008326     -373.43015     -373.22931      310.74172      27.033696      1000         
     49550   0.17573891    -373.40482     -373.22908      271.91508     -2367.2454      1000         
     49551   0.15304328    -373.38126     -373.22822      236.79886     -2734.3683      1000         
Loop time of 93.1032 on 1 procs for 49550 steps with 6 atoms

Performance: 45.983 ns/day, 0.522 hours/ns, 532.205 timesteps/s, 3.193 katom-step/s
156.3% CPU use with 1 MPI tasks x 1 OpenMP threads

MPI task timing breakdown:
Section |  min time  |  avg time  |  max time  |%varavg| %total
---------------------------------------------------------------
Pair    | 90.594     | 90.594     | 90.594     |   0.0 | 97.31
Neigh   | 0.046075   | 0.046075   | 0.046075   |   0.0 |  0.05
Comm    | 0.10163    | 0.10163    | 0.10163    |   0.0 |  0.11
Output  | 1.3154     | 1.3154     | 1.3154     |   0.0 |  1.41
Modify  | 0.98673    | 0.98673    | 0.98673    |   0.0 |  1.06
Other   |            | 0.05917    |            |       |  0.06

Nlocal:              6 ave           6 max           6 min
Histogram: 1 0 0 0 0 0 0 0 0 0
Nghost:            156 ave         156 max         156 min
Histogram: 1 0 0 0 0 0 0 0 0 0
Neighs:              0 ave           0 max           0 min
Histogram: 1 0 0 0 0 0 0 0 0 0
FullNghs:           32 ave          32 max          32 min
Histogram: 1 0 0 0 0 0 0 0 0 0

Total # of neighbors = 32
Ave neighs/atom = 5.3333333
Neighbor list builds = 4955
Dangerous builds not checked

# Write restart files every 100 steps for the final 1000 steps
restart 5 ./restart_NVT/restart_NVT300.*.bin
run 50
Generated 0 of 1 mixed pair_coeff terms from geometric mixing rule
Per MPI rank memory allocation (min/avg/max) = 3.81 | 3.81 | 3.81 Mbytes
   Step         KinEng         PotEng         TotEng          Temp          Press          Volume    
     49551   0.15304328    -373.38126     -373.22822      236.79886     -2734.3683      1000         
     49552   0.16233479    -373.39244     -373.23011      251.17533     -2340.3866      1000         
     49554   0.20737439    -373.44417     -373.2368       320.86362      260.27785      1000         
     49556   0.15470587    -373.39014     -373.23544      239.37134      2796.9134      1000         
     49558   0.1619275     -373.40106     -373.23914      250.54513      2172.42        1000         
     49560   0.16797692    -373.4107      -373.24272      259.90519     -531.49517      1000         
     49562   0.12756625    -373.36865     -373.24108      197.3791      -1863.4702      1000         
     49564   0.18288702    -373.43033     -373.24744      282.97511     -577.49438      1000         
     49566   0.17459066    -373.42369     -373.2491       270.13843      1716.4339      1000         
     49568   0.15572472    -373.40536     -373.24963      240.94778      1778.0813      1000         
     49570   0.18602278    -373.44235     -373.25632      287.82697     -808.41965      1000         
     49572   0.12899572    -373.38341     -373.25442      199.59086     -2745.2681      1000         
     49574   0.14732134    -373.40581     -373.25849      227.9455      -1936.1357      1000         
     49576   0.16728726    -373.43025     -373.26296      258.83811      822.15019      1000         
     49578   0.12765087    -373.38909     -373.26144      197.51002      2409.4003      1000         
     49580   0.16816353    -373.43634     -373.26817      260.19394      889.00854      1000         
     49582   0.13707055    -373.40532     -373.26825      212.08479     -1351.808       1000         
     49584   0.12130662    -373.39057     -373.26926      187.69376     -1503.107       1000         
     49586   0.16692005    -373.44234     -373.27542      258.26994      585.02611      1000         
     49588   0.13282262    -373.4074      -373.27458      205.51211      2483.2959      1000         
     49590   0.15006882    -373.42883     -373.27876      232.19658      1458.0544      1000         
     49592   0.14837941    -373.43045     -373.28207      229.58261     -1295.4624      1000         
     49594   0.10112667    -373.38189     -373.28076      156.46999     -2516.0702      1000         
     49596   0.1416082     -373.42808     -373.28647      219.10574     -1107.0203      1000         
     49598   0.1259587     -373.41348     -373.28752      194.89178      1322.1069      1000         
     49600   0.11715308    -373.40519     -373.28804      181.26713      1664.657       1000         
     49601   0.14622438    -373.43819     -373.29197      226.2482       744.59822      1000         
Loop time of 0.093524 on 1 procs for 50 steps with 6 atoms

Performance: 46.191 ns/day, 0.520 hours/ns, 534.622 timesteps/s, 3.208 katom-step/s
167.5% CPU use with 1 MPI tasks x 1 OpenMP threads

MPI task timing breakdown:
Section |  min time  |  avg time  |  max time  |%varavg| %total
---------------------------------------------------------------
Pair    | 0.090105   | 0.090105   | 0.090105   |   0.0 | 96.34
Neigh   | 9.8396e-05 | 9.8396e-05 | 9.8396e-05 |   0.0 |  0.11
Comm    | 0.00013456 | 0.00013456 | 0.00013456 |   0.0 |  0.14
Output  | 0.0019496  | 0.0019496  | 0.0019496  |   0.0 |  2.08
Modify  | 0.0011461  | 0.0011461  | 0.0011461  |   0.0 |  1.23
Other   |            | 9.025e-05  |            |       |  0.10

Nlocal:              6 ave           6 max           6 min
Histogram: 1 0 0 0 0 0 0 0 0 0
Nghost:            156 ave         156 max         156 min
Histogram: 1 0 0 0 0 0 0 0 0 0
Neighs:              0 ave           0 max           0 min
Histogram: 1 0 0 0 0 0 0 0 0 0
FullNghs:           32 ave          32 max          32 min
Histogram: 1 0 0 0 0 0 0 0 0 0

Total # of neighbors = 32
Ave neighs/atom = 5.3333333
Neighbor list builds = 10
Dangerous builds not checked

write_data out.lmp
System init for write_data ...
Generated 0 of 1 mixed pair_coeff terms from geometric mixing rule
Total wall time: 0:01:35
