LAMMPS data file via write_data, version 2 Aug 2023, timestep = 49601, units = metal

6 atoms
2 atom types

0 10 xlo xhi
0 10 ylo yhi
0 10 zlo zhi

Masses

1 12.0107
2 1.00794

Atoms # atomic

1 1 4.858013379395279 4.653671936708335 4.438573564688641 0 0 0
6 2 4.324546366073817 3.731278828330261 4.503464375345051 0 0 0
5 2 5.091051567602168 5.030649449034575 3.4681217057789873 0 0 0
4 2 4.887976385962058 5.007953019251828 6.576732202302916 0 0 0
2 1 5.1447388394534235 5.341427586427119 5.555457043183576 0 0 0
3 2 5.666011345840557 6.288110578477832 5.524582890633496 0 0 0

Velocities

1 -5.7556669414449235 0.32701810559456657 3.4745252269933005
6 -17.5178328134738 -3.445896631858117 12.872347486901685
5 16.120932927670722 -0.39350705475407116 -8.980760384503776
4 -11.023422283336503 -1.1892319659965702 10.01317484591658
2 4.802369546348672 -0.8292125592743745 -4.108214550615525
3 23.779896174815907 11.012828089470085 -6.353665296498537
