LAMMPS (2 Aug 2023)
OMP_NUM_THREADS environment is not set. Defaulting to 1 thread. (src/comm.cpp:98)
  using 1 OpenMP thread(s) per MPI task
Loaded 1 plugins from /home/venkatan/deepmd-kit/lib/deepmd_lmp
# LAMMPS input script for a custom data setup

units           metal
boundary        p p p
atom_style      atomic

# Define simulation box
region box block 0.0 10.0 0.0 10.0 0.0 10.0
create_box 2 box   # 2 = number of atom types
Created orthogonal box = (0 0 0) to (10 10 10)
  1 by 1 by 1 MPI processor grid

# Define masses
mass 1 12.0107    # C
mass 2 1.00794    # H

# Create atoms (atom-ID, atom-type, x, y, z)
create_atoms 1 single 4.34039 4.909915 5.001325
Created 1 atoms
  using lattice units in orthogonal box = (0 0 0) to (10 10 10)
  create_atoms CPU = 0.000 seconds
create_atoms 1 single 5.65960 5.090085 4.998665
Created 1 atoms
  using lattice units in orthogonal box = (0 0 0) to (10 10 10)
  create_atoms CPU = 0.000 seconds
create_atoms 2 single 6.24080 4.883975 5.891915
Created 1 atoms
  using lattice units in orthogonal box = (0 0 0) to (10 10 10)
  create_atoms CPU = 0.000 seconds
create_atoms 2 single 6.16001 5.443825 4.103245
Created 1 atoms
  using lattice units in orthogonal box = (0 0 0) to (10 10 10)
  create_atoms CPU = 0.000 seconds
create_atoms 2 single 3.83999 4.556175 5.896755
Created 1 atoms
  using lattice units in orthogonal box = (0 0 0) to (10 10 10)
  create_atoms CPU = 0.000 seconds
create_atoms 2 single 3.75992 5.116025 4.108085
Created 1 atoms
  using lattice units in orthogonal box = (0 0 0) to (10 10 10)
  create_atoms CPU = 0.000 seconds

# Neighbor and interaction setup
neighbor        1.0 bin
neigh_modify    every 10 delay 0 check no

# Define force field
pair_style deepmd ../../graph.pb
Summary of lammps deepmd module ...
  >>> Info of deepmd-kit:
  installed to:       /home/venkatan/deepmd-kit
  source:             
  source branch:      HEAD
  source commit:      c45d372
  source commit at:   2024-07-07 08:06:13 +0000
  support model ver.: 1.1 
  build variant:      cuda
  build with tf inc:  /home/venkatan/deepmd-kit/lib/python3.11/site-packages/tensorflow/include;/home/venkatan/deepmd-kit/include
  build with tf lib:  /home/venkatan/deepmd-kit/lib/python3.11/site-packages/tensorflow/libtensorflow_cc.so.2
  set tf intra_op_parallelism_threads: 0
  set tf inter_op_parallelism_threads: 0
  >>> Info of lammps module:
  use deepmd-kit at:  /home/venkatan/deepmd-kitpair_coeff * *

# Define groups
group real_atom type 1 2
6 atoms in group real_atom

# Initialize velocities
velocity real_atom create 300 12345 mom yes rot no

# Minimize to remove overlaps
minimize 1.0e-4 1.0e-6 1000 10000

CITE-CITE-CITE-CITE-CITE-CITE-CITE-CITE-CITE-CITE-CITE-CITE-CITE

Your simulation uses code contributions which should be cited:

- USER-DEEPMD package:

@article{Wang_ComputPhysCommun_2018_v228_p178,
  author = {Wang, Han and Zhang, Linfeng and Han, Jiequn and E, Weinan},
  doi = {10.1016/j.cpc.2018.03.016},
  url = {https://doi.org/10.1016/j.cpc.2018.03.016},
  year = 2018,
  month = {jul},
  publisher = {Elsevier {BV}},
  volume = 228,
  journal = {Comput. Phys. Commun.},
  title = {{DeePMD-kit: A deep learning package for many-body potential energy representation and molecular dynamics}},
  pages = {178--184}
}
@misc{Zeng_JChemPhys_2023_v159_p054801,
  title  = {{DeePMD-kit v2: A software package for deep potential models}},
  author =   {Jinzhe Zeng and Duo Zhang and Denghui Lu and Pinghui Mo and Zeyu Li
         and Yixiao Chen and Mari{\'a}n Rynik and Li'ang Huang and Ziyao Li and 
         Shaochen Shi and Yingze Wang and Haotian Ye and Ping Tuo and Jiabin
         Yang and Ye Ding and Yifan Li and Davide Tisi and Qiyu Zeng and Han 
         Bao and Yu Xia and Jiameng Huang and Koki Muraoka and Yibo Wang and 
         Junhan Chang and Fengbo Yuan and Sigbj{\o}rn L{\o}land Bore and Chun
         Cai and Yinnian Lin and Bo Wang and Jiayan Xu and Jia-Xin Zhu and 
         Chenxing Luo and Yuzhi Zhang and Rhys E A Goodall and Wenshuo Liang
         and Anurag Kumar Singh and Sikai Yao and Jingchao Zhang and Renata
         Wentzcovitch and Jiequn Han and Jie Liu and Weile Jia and Darrin M
         York and Weinan E and Roberto Car and Linfeng Zhang and Han Wang},
  journal =  {J. Chem. Phys.},
  volume =   159,
  issue =    5,  
  year =    2023,
  pages  =   054801,
  doi =      {10.1063/5.0155600},
}

CITE-CITE-CITE-CITE-CITE-CITE-CITE-CITE-CITE-CITE-CITE-CITE-CITE

Switching to 'neigh_modify every 1 delay 0 check yes' setting during minimization
Generated 0 of 1 mixed pair_coeff terms from geometric mixing rule
Neighbor list info ...
  update: every = 1 steps, delay = 0 steps, check = yes
  max neighbors/atom: 2000, page size: 100000
  master list distance cutoff = 7
  ghost atom cutoff = 7
  binsize = 3.5, bins = 3 3 3
  1 neighbor lists, perpetual/occasional/extra = 1 0 0
  (1) pair deepmd, perpetual
      attributes: full, newton on
      pair build: full/bin/atomonly
      stencil: full/bin/3d
      bin: standard
Per MPI rank memory allocation (min/avg/max) = 4.184 | 4.184 | 4.184 Mbytes
   Step          Temp          E_pair         E_mol          TotEng         Press     
         0   300           -373.46152      0             -373.26763      901.90605    
         1   300           -373.46524      0             -373.27135      788.89372    
Loop time of 0.0063933 on 1 procs for 1 steps with 6 atoms

172.5% CPU use with 1 MPI tasks x 1 OpenMP threads

Minimization stats:
  Stopping criterion = energy tolerance
  Energy initial, next-to-last, final = 
     -373.461519364516  -373.461519364516  -373.465236727397
  Force two-norm initial, final = 0.64558959 0.63761791
  Force max component initial, final = 0.28590009 0.36168362
  Final line search alpha, max atom move = 0.34977254 0.126507
  Iterations, force evaluations = 1 2

MPI task timing breakdown:
Section |  min time  |  avg time  |  max time  |%varavg| %total
---------------------------------------------------------------
Pair    | 0.0063249  | 0.0063249  | 0.0063249  |   0.0 | 98.93
Neigh   | 0          | 0          | 0          |   0.0 |  0.00
Comm    | 9.519e-06  | 9.519e-06  | 9.519e-06  |   0.0 |  0.15
Output  | 0          | 0          | 0          |   0.0 |  0.00
Modify  | 0          | 0          | 0          |   0.0 |  0.00
Other   |            | 5.885e-05  |            |       |  0.92

Nlocal:              6 ave           6 max           6 min
Histogram: 1 0 0 0 0 0 0 0 0 0
Nghost:            156 ave         156 max         156 min
Histogram: 1 0 0 0 0 0 0 0 0 0
Neighs:              0 ave           0 max           0 min
Histogram: 1 0 0 0 0 0 0 0 0 0
FullNghs:           30 ave          30 max          30 min
Histogram: 1 0 0 0 0 0 0 0 0 0

Total # of neighbors = 30
Ave neighs/atom = 5
Neighbor list builds = 0
Dangerous builds not checked


# Thermostat setup
compute real_temp real_atom temp
compute real_press all pressure real_temp
fix 1 real_atom nvt temp 300.0 300.0 0.1
fix_modify 1 temp real_temp
WARNING: Temperature for fix modify is not for group all (src/fix_nh.cpp:1411)

# Thermodynamic output
timestep 0.001
thermo 2
thermo_style custom step ke pe etotal temp press vol
thermo_modify temp real_temp press real_press
WARNING: Temperature for thermo pressure is not for group all (src/thermo.cpp:527)

# Output thermodynamic data to a separate file
fix thermo_print all print 2 "$(step) $(temp) $(press) $(ke) $(pe) $(etotal)" file thermo_data_NVT300.out screen no title "# Step Temp Press KE PE Total_Energy"

# Dump configuration
dump 1 real_atom custom 2 ethylene_NVT300.dump id type x y z vx vy vz

# Run the first 19000 steps without writing restart files
run 49550
Generated 0 of 1 mixed pair_coeff terms from geometric mixing rule
Per MPI rank memory allocation (min/avg/max) = 2.559 | 2.559 | 2.559 Mbytes
   Step         KinEng         PotEng         TotEng          Temp          Press          Volume    
         1   0.19389022    -373.46524     -373.27135      300            788.89372      1000         
         2   0.17227195    -373.4411      -373.26883      266.55076     -688.66033      1000         
         4   0.11215659    -373.37637     -373.26421      173.53623     -2168.3745      1000         
         6   0.17747046    -373.44735     -373.26988      274.59424     -981.71078      1000         
         8   0.13506349    -373.40216     -373.2671       208.97933      1448.2825      1000         
        10   0.11429812    -373.37953     -373.26523      176.84975      1580.5053      1000         
        12   0.17337753    -373.44364     -373.27027      268.26138     -1036.0457      1000         
        14   0.10684333    -373.37075     -373.26391      165.31519     -2823.9071      1000         
        16   0.15644746    -373.42325     -373.26681      242.06605     -1835.9918      1000         
        18   0.18671121    -373.45617     -373.26946      288.89215      1206.2147      1000         
        20   0.11780359    -373.37984     -373.26203      182.27365      2993.1975      1000         
        22   0.18409137    -373.45357     -373.26948      284.83856      1239.6144      1000         
        24   0.12525006    -373.38922     -373.26397      193.79533     -1218.7083      1000         
        26   0.11769434    -373.38075     -373.26306      182.10461     -1575.9593      1000         
        28   0.18900854    -373.45768     -373.26868      292.44673      434.07879      1000         
        30   0.11921073    -373.38002     -373.26081      184.45087      2422.3836      1000         
        32   0.16792774    -373.43384     -373.26592      259.82911      1142.2319      1000         
        34   0.15999314    -373.4243      -373.2643       247.55216     -1835.2266      1000         
        36   0.10180207    -373.36134     -373.25954      157.51501     -3031.8702      1000         
        38   0.17901544    -373.44402     -373.265        276.98474     -1334.996       1000         
        40   0.14853928    -373.40976     -373.26122      229.82997      1653.8046      1000         
        42   0.14386624    -373.40371     -373.25985      222.59954      2206.1682      1000         
        44   0.19123948    -373.45483     -373.26359      295.8986      -113.14251      1000         
        46   0.1081846     -373.3648      -373.25661      167.39049     -1803.4287      1000         
        48   0.14863353    -373.40804     -373.25941      229.97581     -956.08941      1000         
        50   0.16992755    -373.43069     -373.26076      262.92335      1747.2267      1000         
        52   0.11998961    -373.3737      -373.25371      185.656        2993.0381      1000         
        54   0.20220193    -373.46265     -373.26045      312.86043      695.34795      1000         
        56   0.1473571     -373.40161     -373.25426      228.00082     -2134.8898      1000         
        58   0.13797556    -373.39101     -373.25304      213.48508     -2603.1186      1000         
        60   0.19358986    -373.45124     -373.25765      299.53527     -402.51535      1000         
        62   0.11590933    -373.36495     -373.24904      179.34272      1921.8829      1000         
        64   0.17091855    -373.4249      -373.25398      264.45668      1013.8337      1000         
        66   0.16946909    -373.4211      -373.25163      262.21399     -1551.293       1000         
        68   0.12038713    -373.36696     -373.24657      186.27108     -2360.7511      1000         
        70   0.19660308    -373.44811     -373.2515       304.19752     -379.97018      1000         
        72   0.15598544    -373.40233     -373.24635      241.35118      2669.5968      1000         
        74   0.15047813    -373.39546     -373.24498      232.82989      2973.3291      1000         
        76   0.19619025    -373.44373     -373.24754      303.55877      193.6211       1000         
        78   0.12671976    -373.36699     -373.24027      196.06935     -2053.3962      1000         
        80   0.17939893    -373.42216     -373.24276      277.5781      -1649.6159      1000         
        82   0.19394007    -373.43679     -373.24285      300.07714      832.36677      1000         
        84   0.12891006    -373.36414     -373.23523      199.45832      2035.0847      1000         
        86   0.19602936    -373.43686     -373.24083      303.30983     -148.2951       1000         
        88   0.14578182    -373.37999     -373.23421      225.56344     -2670.9595      1000         
        90   0.15351819    -373.3861      -373.23259      237.53368     -2625.8808      1000         
        92   0.22742114    -373.46385     -373.23643      351.88131      163.87648      1000         
        94   0.15769407    -373.38479     -373.2271       243.99489      2931.5868      1000         
        96   0.19679083    -373.42746     -373.23066      304.48802      2187.6482      1000         
        98   0.17502494    -373.40225     -373.22723      270.81038     -552.90286      1000         
       100   0.12106776    -373.34261     -373.22155      187.32419     -1780.6459      1000         
       102   0.20943582    -373.43546     -373.22603      324.0532      -314.65485      1000         
       104   0.18619378    -373.40623     -373.22003      288.09155      2202.423       1000         
       106   0.18662841    -373.40446     -373.21783      288.76404      2016.7933      1000         
       108   0.22166151    -373.44071     -373.21905      342.96961     -1068.5385      1000         
       110   0.13936469    -373.34998     -373.21062      215.63443     -3260.3238      1000         
       112   0.19103019    -373.40339     -373.21236      295.57477     -2389.5437      1000         
       114   0.22029558    -373.43183     -373.21153      340.85616      779.88772      1000         
       116   0.17193632    -373.3751      -373.20316      266.03145      2607.4504      1000         
       118   0.24143798    -373.44912     -373.20768      373.56911      812.46912      1000         
       120   0.17208544    -373.37153     -373.19944      266.26218     -1542.0613      1000         
       122   0.15957194    -373.35623     -373.19666      246.90045     -1510.6972      1000         
       124   0.23497865    -373.43476     -373.19978      363.57478      1048.4928      1000         
       126   0.18103344    -373.37054     -373.18951      280.10713      3312.8483      1000         
       128   0.2455552     -373.43784     -373.19228      379.93954      1804.6636      1000         
       130   0.23501898    -373.42255     -373.18754      363.6372      -1672.3891      1000         
       132   0.16364597    -373.34358     -373.17993      253.20406     -3223.4846      1000         
       134   0.23452482    -373.41792     -373.1834       362.87259     -1560.9829      1000         
       136   0.19558617    -373.37177     -373.17618      302.6241       1523.1078      1000         
       138   0.20073489    -373.37346     -373.17272      310.59054      1930.1052      1000         
       140   0.26974064    -373.4438      -373.17406      417.36087     -737.33542      1000         
       142   0.19204077    -373.35548     -373.16344      297.13841     -2518.9109      1000         
       144   0.23982742    -373.40364     -373.16381      371.07714     -1281.5204      1000         
       146   0.26221341    -373.42416     -373.16195      405.71424      2065.2994      1000         
       148   0.19454529    -373.34568     -373.15113      301.01358      3701.5805      1000         
       150   0.28422294    -373.44022     -373.15599      439.76887      1208.6339      1000         
       152   0.22856435    -373.37455     -373.14598      353.65016     -1999.0619      1000         
       154   0.21940518    -373.36099     -373.14158      339.47847     -2550.9334      1000         
       156   0.29899034    -373.44323     -373.14424      462.61798     -152.36599      1000         
       158   0.20493786    -373.33629     -373.13135      317.09366      2371.2221      1000         
       160   0.25546335    -373.38895     -373.13348      395.27009      1117.3243      1000         
       162   0.26895457    -373.39777     -373.12881      416.14462     -2144.5282      1000         
       164   0.20982869    -373.32921     -373.11938      324.66108     -3254.1188      1000         
       166   0.31332382    -373.43579     -373.12246      484.79571     -1011.1626      1000         
       168   0.28034965    -373.39476     -373.11441      433.77585      2632.3792      1000         
       170   0.24921697    -373.35678     -373.10756      385.60527      3265.6888      1000         
       172   0.31587086    -373.42563     -373.10976      488.73667      242.56737      1000         
       174   0.22124565    -373.31845     -373.0972       342.32617     -2115.4319      1000         
       176   0.28207409    -373.37928     -373.09721      436.44402     -1427.5975      1000         
       178   0.33932984    -373.43573     -373.0964       525.03397      1537.2724      1000         
       180   0.25620715    -373.33879     -373.08259      396.42096      3001.7593      1000         
       182   0.34613112    -373.43451     -373.08838      535.55738      222.30017      1000         
       184   0.27294381    -373.34996     -373.07702      422.31705     -3107.5342      1000         
       186   0.25374236    -373.32557     -373.07183      392.60726     -3404.827       1000         
       188   0.36386891    -373.43956     -373.07569      563.00249     -439.47475      1000         
       190   0.275861      -373.33801     -373.06215      426.83072      2808.1791      1000         
       192   0.32361669    -373.3875      -373.06389      500.72153      2041.7109      1000         
       194   0.33250301    -373.39216     -373.05965      514.47105     -1079.6642      1000         
       196   0.24509347    -373.29414     -373.04905      379.22512     -2214.0372      1000         
       198   0.35900933    -373.41223     -373.05322      555.4834      -173.41433      1000         
       200   0.34420125    -373.39082     -373.04661      532.57134      3153.388       1000         
       202   0.32120309    -373.36012     -373.03891      496.98705      3268.4026      1000         
       204   0.40785683    -373.45121     -373.04335      631.06354     -528.18369      1000         
       206   0.28221108    -373.31217     -373.02996      436.65598     -3422.9224      1000         
       208   0.3226054     -373.35331     -373.03071      499.1568      -2864.301       1000         
       210   0.37637671    -373.40895     -373.03257      582.35538      441.49621      1000         
       212   0.27657417    -373.29494     -373.01837      427.93417      2582.8115      1000         
       214   0.39516948    -373.42284     -373.02767      611.43283      384.86245      1000         
       216   0.33159735    -373.34915     -373.01756      513.06975     -2424.4579      1000         
       218   0.30368959    -373.31642     -373.01273      469.88899     -2290.2424      1000         
       220   0.42792094    -373.44742     -373.0195       662.10808      890.56337      1000         
       222   0.33046283    -373.33772     -373.00726      511.31433      4139.2837      1000         
       224   0.3781336     -373.38934     -373.01121      585.07377      2940.7199      1000         
       226   0.39004808    -373.3998      -373.00975      603.50865     -1048.1229      1000         
       228   0.28451853    -373.28496     -373.00044      440.22623     -3069.0501      1000         
       230   0.39915507    -373.40655     -373.0074       617.59961     -1671.2262      1000         
       232   0.37397364    -373.37844     -373.00446      578.63719      1574.0399      1000         
       234   0.32749696    -373.32538     -372.99788      506.72534      2088.7276      1000         
       236   0.43025813    -373.4374      -373.00715      665.72435     -1184.7662      1000         
       238   0.30786025    -373.30432     -372.99646      476.34211     -3436.9642      1000         
       240   0.35468018    -373.35421     -372.99953      548.78506     -2227.5185      1000         
       242   0.42322678    -373.42955     -373.00632      654.84497      1642.1964      1000         
       244   0.29869575    -373.29229     -372.99359      462.16218      4205.702       1000         
       246   0.40582015    -373.41292     -373.0071       627.91226      1961.1578      1000         
       248   0.33187188    -373.33264     -373.00077      513.49452     -1498.5675      1000         
       250   0.29638611    -373.29499     -372.99861      458.58855     -2363.3397      1000         
       252   0.43907228    -373.449       -373.00992      679.3622      -159.94238      1000         
       254   0.35051019    -373.35305     -373.00254      542.33297      2625.1749      1000         
       256   0.37735085    -373.38653     -373.00918      583.86264      1517.2333      1000         
       258   0.37993351    -373.39282     -373.01289      587.85871     -2114.3721      1000         
       260   0.26525195    -373.27219     -373.00694      410.41567     -3648.0111      1000         
       262   0.38603451    -373.40353     -373.0175       597.29859     -1699.4216      1000         
       264   0.38293092    -373.40371     -373.02078      592.49651      2154.406       1000         
       266   0.32914689    -373.34693     -373.01779      509.27824      3293.7956      1000         
       268   0.40972428    -373.44172     -373.03199      633.953        324.43659      1000         
       270   0.26037041    -373.28614     -373.02577      402.86263     -2175.8357      1000         
       272   0.28799145    -373.31955     -373.03156      445.59977     -1664.2675      1000         
       274   0.37887728    -373.42223     -373.04335      586.22444      1392.6822      1000         
       276   0.30033706    -373.33688     -373.03654      464.70172      3433.8747      1000         
       278   0.41172062    -373.46636     -373.05464      637.04187      1050.8652      1000         
       280   0.31796363    -373.37252     -373.05455      491.97473     -2406.8833      1000         
       282   0.2442854     -373.30023     -373.05595      377.97482     -3220.7657      1000         
       284   0.35066559    -373.42204     -373.07137      542.57341     -837.47641      1000         
       286   0.25558585    -373.32465     -373.06907      395.45964      2382.1017      1000         
       288   0.3003871     -373.37967     -373.07928      464.77915      1936.6748      1000         
       290   0.33879837    -373.42803     -373.08923      524.21166     -1190.7525      1000         
       292   0.23423396    -373.32239     -373.08816      362.42255     -2640.6699      1000         
       294   0.32085851    -373.42281     -373.10195      496.4539      -963.56724      1000         
       296   0.29404832    -373.40432     -373.11027      454.97135      2480.5053      1000         
       298   0.23312485    -373.34403     -373.11091      360.70646      3427.846       1000         
       300   0.32137068    -373.45002     -373.12865      497.24635      412.37945      1000         
       302   0.20795848    -373.33596     -373.12801      321.76736     -2384.9268      1000         
       304   0.22792455    -373.36397     -373.13604      352.66022     -2334.4473      1000         
       306   0.2894222     -373.44024     -373.15082      447.81352      336.45663      1000         
       308   0.1898476     -373.33747     -373.14763      293.74499      2425.7527      1000         
       310   0.27546646    -373.44043     -373.16496      426.22025      647.69683      1000         
       312   0.22411976    -373.39308     -373.16896      346.77319     -2196.6764      1000         
       314   0.17914402    -373.35124     -373.17209      277.18369     -2683.1239      1000         
       316   0.26939105    -373.45692     -373.18753      416.81997     -248.23395      1000         
       318   0.18360384    -373.37182     -373.18822      284.08422      2874.2144      1000         
       320   0.19676976    -373.39376     -373.19699      304.45543      2624.1861      1000         
       322   0.21783278    -373.42398     -373.20615      337.04554     -347.83832      1000         
       324   0.13886542    -373.3444      -373.20553      214.86193     -2152.8547      1000         
       326   0.21465896    -373.43108     -373.21642      332.1348      -1177.4762      1000         
       328   0.2051438     -373.42822     -373.22308      317.41231      1503.4621      1000         
       330   0.15974148    -373.3834      -373.22366      247.16278      2218.7328      1000         
       332   0.22085795    -373.45715     -373.23629      341.72629     -358.89385      1000         
       334   0.13597427    -373.37107     -373.2351       210.38854     -2695.2166      1000         
       336   0.14996871    -373.39016     -373.24019      232.04169     -2335.8344      1000         
       338   0.19020653    -373.43968     -373.24947      294.30035      477.99168      1000         
       340   0.11520054    -373.36062     -373.24542      178.24603      2712.1836      1000         
       342   0.18333347    -373.43944     -373.25611      283.66589      1439.119       1000         
       344   0.15200732    -373.40878     -373.25677      235.19596     -1092.1453      1000         
       346   0.12616458    -373.38342     -373.25726      195.21034     -1788.7362      1000         
       348   0.19758177    -373.46423     -373.26665      305.71182      32.037426      1000         
       350   0.13497549    -373.39933     -373.26436      208.84316      2356.6895      1000         
       352   0.14625137    -373.41551     -373.26926      226.28997      1753.2354      1000         
       354   0.15593327    -373.42928     -373.27334      241.27046     -1120.0029      1000         
       356   0.094801574   -373.36528     -373.27048      146.68338     -2769.926       1000         
       358   0.158476      -373.43541     -373.27693      245.20474     -1627.467       1000         
       360   0.15197797    -373.43063     -373.27865      235.15055      1192.1354      1000         
       362   0.12095409    -373.39818     -373.27722      187.14831      2209.7572      1000         
       364   0.16849087    -373.45273     -373.28423      260.70041      193.90872      1000         
       366   0.10231268    -373.38298     -373.28067      158.30507     -1771.1848      1000         
       368   0.12081095    -373.4041      -373.28328      186.92684     -1395.2194      1000         
       370   0.15708074    -373.44513     -373.28805      243.0459       1074.4879      1000         
       372   0.1067574     -373.39029     -373.28353      165.18224      2750.7449      1000         
       374   0.16165586    -373.45189     -373.29023      250.12483      1137.1028      1000         
       376   0.12735964    -373.41603     -373.28867      197.05941     -1587.1087      1000         
       378   0.097262808   -373.38472     -373.28746      150.49157     -2384.9706      1000         
       380   0.15239956    -373.44567     -373.29327      235.80286     -579.47692      1000         
       382   0.10785727    -373.39727     -373.28941      166.88403      1779.6719      1000         
       384   0.13463961    -373.4271      -373.29246      208.32347      1422.7914      1000         
       386   0.15302032    -373.44759     -373.29457      236.76334     -1026.0821      1000         
       388   0.099072344   -373.3899      -373.29082      153.2914      -2285.4825      1000         
       390   0.14661922    -373.44216     -373.29555      226.85913     -915.77947      1000         
       392   0.12694034    -373.42198     -373.29504      196.41064      1847.1652      1000         
       394   0.096098316   -373.38902     -373.29293      148.68979      2628.687       1000         
       396   0.14333808    -373.44118     -373.29785      221.78234      395.17981      1000         
       398   0.097149509   -373.3909      -373.29375      150.31626     -1803.2616      1000         
       400   0.12276412    -373.41824     -373.29547      189.94891     -1637.3356      1000         
       402   0.15705081    -373.45559     -373.29854      242.99958      615.70936      1000         
       404   0.10807712    -373.40188     -373.2938       167.22419      2116.5843      1000         
       406   0.14962466    -373.4483      -373.29868      231.50935      535.18875      1000         
       408   0.11754718    -373.41399     -373.29645      181.87691     -1963.0272      1000         
       410   0.09210141    -373.38679     -373.29469      142.5055      -2403.5986      1000         
       412   0.14744365    -373.44684     -373.2994       228.13474     -271.20863      1000         
       414   0.10845592    -373.4037      -373.29525      167.81031      2244.4106      1000         
       416   0.12907634    -373.42627     -373.29719      199.71561      1933.6713      1000         
       418   0.14267201    -373.44113     -373.29846      220.75173     -528.53842      1000         
       420   0.089848914   -373.38395     -373.2941       139.02029     -1864.4987      1000         
       422   0.14011849    -373.4381      -373.29798      216.80076     -670.96168      1000         
       424   0.13351663    -373.43049     -373.29697      206.58593      1766.917       1000         
       426   0.11087432    -373.40526     -373.29439      171.55222      2192.3533      1000         
       428   0.1541649     -373.45289     -373.29873      238.53431     -267.99969      1000         
       430   0.09642509    -373.39025     -373.29382      149.19539     -2454.9454      1000         
       432   0.11064496    -373.40561     -373.29497      171.19733     -2072.213       1000         
       434   0.14270708    -373.44011     -373.2974       220.80601      454.08092      1000         
       436   0.099215508   -373.39116     -373.29195      153.51291      2199.8525      1000         
       438   0.15843092    -373.45519     -373.29675      245.13499      819.61285      1000         
       440   0.13630844    -373.43014     -373.29383      210.9056      -1469.0683      1000         
       442   0.10620867    -373.39764     -373.29143      164.33321     -1739.0618      1000         
       444   0.15260288    -373.4482      -373.2956       236.11746      381.40321      1000         
       446   0.099308172   -373.38998     -373.29068      153.65629      2650.2087      1000         
       448   0.1172211     -373.40925     -373.29203      181.37238      1923.7444      1000         
       450   0.14324182    -373.4364      -373.29316      221.6334      -947.86551      1000         
       452   0.095315885   -373.3834      -373.28808      147.47915     -2505.0223      1000         
       454   0.15147726    -373.44299     -373.29152      234.37582     -1358.5693      1000         
       456   0.14554482    -373.43572     -373.29017      225.19674      1166.795       1000         
       458   0.11195539    -373.39815     -373.2862       173.22492      1795.3768      1000         
       460   0.16101677    -373.45174     -373.29073      249.13599     -380.13754      1000         
       462   0.10342838    -373.38827     -373.28484      160.03136     -2153.7549      1000         
       464   0.12240295    -373.40803     -373.28563      189.39009     -1386.7866      1000         
       466   0.15861551    -373.44657     -373.28796      245.42059      1320.5903      1000         
       468   0.10086657    -373.38183     -373.28096      156.06754      2973.5486      1000         
       470   0.1613509     -373.44747     -373.28612      249.65297      1209.5721      1000         
       472   0.13489207    -373.41688     -373.28198      208.7141      -1521.2637      1000         
       474   0.10734519    -373.38647     -373.27913      166.09171     -2162.0861      1000         
       476   0.16762082    -373.45078     -373.28316      259.35422     -300.84596      1000         
       478   0.11595281    -373.39318     -373.27723      179.41         1889.8227      1000         
       480   0.13629013    -373.41457     -373.27828      210.87726      1224.0903      1000         
       482   0.15942532    -373.43808     -373.27866      246.67359     -1399.4979      1000         
       484   0.10216376    -373.37478     -373.27262      158.07464     -2516.2967      1000         
       486   0.16391617    -373.43995     -373.27604      253.62213     -930.76578      1000         
       488   0.15270029    -373.42668     -373.27398      236.26818      1912.4061      1000         
       490   0.11373169    -373.38262     -373.26889      175.97333      2596.8045      1000         
       492   0.17513867    -373.44877     -373.27364      270.98634      219.89796      1000         
       494   0.11578541    -373.38207     -373.26628      179.15098     -1822.0337      1000         
       496   0.14913819    -373.41615     -373.26702      230.75666     -1385.7351      1000         
       498   0.19148915    -373.46047     -373.26898      296.2849       1008.6758      1000         
       500   0.11666742    -373.3768      -373.26014      180.51569      2413.7934      1000         
       502   0.1721789     -373.43788     -373.2657       266.40678      462.34131      1000         
       504   0.12875947    -373.38878     -373.26002      199.22532     -2200.0109      1000         
       506   0.10714185    -373.36406     -373.25692      165.77709     -2567.4712      1000         
       508   0.19436273    -373.45559     -373.26123      300.7311      -337.21421      1000         
       510   0.15027649    -373.40388     -373.2536       232.5179       2216.1106      1000         
       512   0.17986691    -373.43479     -373.25492      278.3022       1714.2971      1000         
       514   0.18385463    -373.43741     -373.25356      284.47227     -828.39506      1000         
       516   0.10531514    -373.35181     -373.2465       162.95067     -1921.3348      1000         
       518   0.17424191    -373.42454     -373.25029      269.59882     -435.03793      1000         
       520   0.16445494    -373.41147     -373.24702      254.45576      2224.4007      1000         
       522   0.14459826    -373.38659     -373.24199      223.73217      2527.6732      1000         
       524   0.21386557    -373.4599      -373.24604      330.90721     -283.12099      1000         
       526   0.1332303     -373.37028     -373.23705      206.14289     -2560.5879      1000         
       528   0.16344374    -373.40115     -373.2377       252.89116     -2141.4652      1000         
       530   0.2042571     -373.44341     -373.23916      316.04034      488.02305      1000         
       532   0.13664325    -373.36568     -373.22903      211.42363      2203.1251      1000         
       534   0.2214799     -373.45692     -373.23544      342.68862      474.60713      1000         
       536   0.1695002     -373.39731     -373.22781      262.26212     -1898.7678      1000         
       538   0.13938293    -373.36353     -373.22415      215.66266     -1984.2705      1000         
       540   0.21600285    -373.44457     -373.22857      334.21415      464.66454      1000         
       542   0.14438516    -373.36295     -373.21857      223.40245      3068.8384      1000         
       544   0.19695825    -373.41864     -373.22168      304.74706      2214.9445      1000         
       546   0.21241       -373.43127     -373.21886      328.65506     -842.56005      1000         
       548   0.14620611    -373.35744     -373.21124      226.21993     -2418.9617      1000         
       550   0.23043661    -373.44563     -373.2152       356.54703     -1212.7205      1000         
       552   0.19828002    -373.40826     -373.20998      306.7922       1476.6578      1000         
       554   0.16650361    -373.37145     -373.20495      257.62559      1874.8232      1000         
       556   0.23069903    -373.43925     -373.20855      356.95307     -799.74577      1000         
       558   0.14633402    -373.34532     -373.19898      226.41785     -2786.874       1000         
       560   0.19558569    -373.3955      -373.19991      302.62335     -1942.3319      1000         
       562   0.2456273     -373.44691     -373.20129      380.05109      1200.1646      1000         
       564   0.17025447    -373.36        -373.18975      263.42919      3249.6572      1000         
       566   0.25720886    -373.45386     -373.19665      397.97087      1436.4658      1000         
       568   0.19031262    -373.37815     -373.18783      294.4645      -1324.1716      1000         
       570   0.16687585    -373.35121     -373.18433      258.20156     -1932.81        1000         
       572   0.25485249    -373.44413     -373.18928      394.32493      107.60325      1000         
       574   0.17438505    -373.35218     -373.17779      269.82028      2482.2271      1000         
       576   0.23354429    -373.41542     -373.18188      361.35546      1392.3219      1000         
       578   0.23722402    -373.4154      -373.17818      367.04898     -1775.1682      1000         
       580   0.16467112    -373.33509     -373.17042      254.79024     -3220.9723      1000         
       582   0.25743857    -373.43229     -373.17485      398.32629     -1562.6125      1000         
       584   0.23100481    -373.40027     -373.16926      357.42619      1770.2554      1000         
       586   0.21300678    -373.37771     -373.16471      329.57843      2657.1353      1000         
       588   0.27908702    -373.44723     -373.16814      431.82223      162.44017      1000         
       590   0.18249948    -373.34066     -373.15816      282.37548     -1922.696       1000         
       592   0.22808572    -373.38741     -373.15932      352.90958     -1325.6515      1000         
       594   0.27260395    -373.43364     -373.16104      421.79119      1547.6387      1000         
       596   0.18852367    -373.33806     -373.14954      291.69651      3252.1826      1000         
       598   0.27548307    -373.43223     -373.15674      426.24596      944.78101      1000         
       600   0.21674641    -373.36539     -373.14865      335.36464     -2277.6158      1000         
       602   0.20196674    -373.34724     -373.14527      312.49654     -3063.3212      1000         
       604   0.29528401    -373.44595     -373.15067      456.88331     -764.2183       1000         
       606   0.21581936    -373.35532     -373.1395       333.93024      2136.2208      1000         
       608   0.27133055    -373.41499     -373.14366      419.82089      1552.6237      1000         
       610   0.27195881    -373.41273     -373.14077      420.79298     -1275.6077      1000         
       612   0.19204315    -373.32527     -373.13323      297.14209     -2491.6137      1000         
       614   0.27811547    -373.41632     -373.1382       430.31897     -662.95914      1000         
       616   0.25348959    -373.3868      -373.13331      392.21616      2710.3749      1000         
       618   0.24362263    -373.37341     -373.12979      376.94934      3370.9906      1000         
       620   0.31300172    -373.44679     -373.13379      484.29734      330.62538      1000         
       622   0.22134048    -373.34606     -373.12472      342.4729      -2436.1214      1000         
       624   0.26269135    -373.38903     -373.12634      406.45375     -2305.1355      1000         
       626   0.29745972    -373.42625     -373.12879      460.2497       477.6281       1000         
       628   0.20271966    -373.32105     -373.11834      313.6615       2392.6144      1000         
       630   0.28375464    -373.40961     -373.12585      439.04429      404.04304      1000         
       632   0.24068421    -373.36029     -373.1196       372.40281     -2485.0692      1000         
       634   0.23334876    -373.34994     -373.11659      361.05291     -2824.671       1000         
       636   0.33370738    -373.45681     -373.12311      516.33453     -46.421613      1000         
       638   0.25144762    -373.36495     -373.1135       389.05668      3200.2953      1000         
       640   0.28271619    -373.39991     -373.1172       437.43753      2695.5494      1000         
       642   0.28692971    -373.40357     -373.11664      443.95697     -498.69207      1000         
       644   0.2127075     -373.32258     -373.10988      329.11537     -2298.1414      1000         
       646   0.30491454    -373.42076     -373.11584      471.7843      -1017.7405      1000         
       648   0.28756587    -373.40064     -373.11308      444.94128      1955.4275      1000         
       650   0.25078524    -373.36043     -373.10965      388.03181      2449.5525      1000         
       652   0.29964346    -373.41476     -373.11512      463.62853     -621.6539       1000         
       654   0.20756216    -373.3151      -373.10753      321.15416     -3231.7942      1000         
       656   0.25591275    -373.3657      -373.10978      395.96544     -2686.7927      1000         
       658   0.32766854    -373.44168     -373.11401      506.99083      598.72022      1000         
       660   0.26272211    -373.36876     -373.10604      406.50133      2983.9469      1000         
       662   0.32136929    -373.43483     -373.11347      497.2442       1349.6145      1000         
       664   0.25258619    -373.36169     -373.1091       390.81836     -1474.576       1000         
       666   0.21257656    -373.31913     -373.10656      328.91277     -1954.4708      1000         
       668   0.30697264    -373.42117     -373.11419      474.96874      478.27485      1000         
       670   0.25315231    -373.36059     -373.10744      391.6943       3233.1386      1000         
       672   0.30247833    -373.41423     -373.11175      468.01483      2224.1921      1000         
       674   0.31745561    -373.43123     -373.11377      491.1887      -1429.3199      1000         
       676   0.21856615    -373.32619     -373.10763      338.18026     -3407.1209      1000         
       678   0.28182181    -373.39616     -373.11433      436.05368     -1988.4573      1000         
       680   0.26266227    -373.37633     -373.11366      406.40875      1337.0357      1000         
       682   0.2367963     -373.34773     -373.11094      366.38718      2346.0309      1000         
       684   0.31573543    -373.4348      -373.11906      488.52711     -220.59456      1000         
       686   0.23004357    -373.34289     -373.11284      355.9389      -2399.6721      1000         
       688   0.25462218    -373.37024     -373.11562      393.96858     -1590.6644      1000         
       690   0.30864473    -373.43023     -373.12159      477.5559       1653.8816      1000         
       692   0.22905296    -373.3436      -373.11455      354.40617      3755.9823      1000         
       694   0.30424428    -373.42807     -373.12382      470.74723      1625.9468      1000         
       696   0.26506134    -373.38679     -373.12173      410.12075     -1826.4376      1000         
       698   0.22467468    -373.34465     -373.11997      347.63179     -2811.6426      1000         
       700   0.31153886    -373.4406      -373.12906      482.0339      -683.13267      1000         
       702   0.23534568    -373.35969     -373.12434      364.14268      2108.7359      1000         
       704   0.25345181    -373.38179     -373.12834      392.15771      1471.7016      1000         
       706   0.28300174    -373.41619     -373.13319      437.87935     -1693.9003      1000         
       708   0.19504458    -373.32308     -373.12804      301.7861      -3116.9073      1000         
       710   0.27006921    -373.40559     -373.13552      417.86927     -1262.2832      1000         
       712   0.27013285    -373.40792     -373.13778      417.96773      2304.3915      1000         
       714   0.22572329    -373.36027     -373.13455      349.25428      3447.4009      1000         
       716   0.30224287    -373.44753     -373.14528      467.65052      735.28561      1000         
       718   0.21034624    -373.35071     -373.14037      325.46187     -1900.5378      1000         
       720   0.22389817    -373.36771     -373.14381      346.43032     -1738.6498      1000         
       722   0.28301569    -373.43495     -373.15193      437.90093      836.93982      1000         
       724   0.19325628    -373.33891     -373.14566      299.01913      2626.68        1000         
       726   0.26211269    -373.41797     -373.15586      405.55841      554.73703      1000         
       728   0.23333844    -373.38884     -373.15551      361.03694     -2603.08        1000         
       730   0.19461214    -373.34903     -373.15442      301.11701     -3179.4659      1000         
       732   0.29068335    -373.45536     -373.16467      449.76486     -666.28285      1000         
       734   0.2248549     -373.38732     -373.16247      347.91064      2520.7054      1000         
       736   0.2260043     -373.3925      -373.16649      349.68906      2357.9483      1000         
       738   0.24889018    -373.42196     -373.17307      385.09964     -509.75116      1000         
       740   0.15312399    -373.32185     -373.16873      236.92375     -2021.1949      1000         
       742   0.22406224    -373.40052     -373.17646      346.68418     -678.2543       1000         
       744   0.23737727    -373.41809     -373.18071      367.2861       2177.7843      1000         
       746   0.19535505    -373.37327     -373.17791      302.26649      2814.9265      1000         
       748   0.27097895    -373.46086     -373.18988      419.27687     -118.69969      1000         
       750   0.17817498    -373.36443     -373.18625      275.68433     -2769.153       1000         
       752   0.18573806    -373.37579     -373.19005      287.38643     -2548.1836      1000         
       754   0.24462716    -373.44396     -373.19934      378.50362      178.44115      1000         
       756   0.1569964     -373.35081     -373.19381      242.9154       2348.1011      1000         
       758   0.22574708    -373.43052     -373.20477      349.29108      885.72872      1000         
       760   0.19540655    -373.4008      -373.20539      302.34617     -1709.0024      1000         
       762   0.14936992    -373.3542      -373.20483      231.1152      -2087.7118      1000         
       764   0.23369856    -373.44875     -373.21506      361.59416      194.95168      1000         
       766   0.1747742     -373.38839     -373.21361      270.42241      2944.9715      1000         
       768   0.19015201    -373.40846     -373.21831      294.21599      2460.6132      1000         
       770   0.22116301    -373.44653     -373.22536      342.19829     -623.01734      1000         
       772   0.13276889    -373.35497     -373.2222       205.42896     -2433.1791      1000         
       774   0.18969587    -373.41971     -373.23001      293.51022     -1464.673       1000         
       776   0.18104318    -373.41546     -373.23442      280.1222       1156.4394      1000         
       778   0.12834485    -373.35988     -373.23153      198.5838       1946.4712      1000         
       780   0.20651071    -373.44926     -373.24275      319.52728     -434.36707      1000         
       782   0.13880862    -373.37863     -373.23982      214.77404     -2489.0437      1000         
       784   0.16107481    -373.40488     -373.24381      249.22579     -1922.5355      1000         
       786   0.21480063    -373.46766     -373.25286      332.354        869.13989      1000         
       788   0.12698049    -373.37501     -373.24803      196.47277      2968.281       1000         
       790   0.17757669    -373.43569     -373.25812      274.75862      1550.4063      1000         
       792   0.13963764    -373.39792     -373.25828      216.05676     -1099.9844      1000         
       794   0.10622759    -373.36408     -373.25785      164.36247     -1867.4051      1000         
       796   0.19090798    -373.45807     -373.26716      295.38568     -187.86292      1000         
       798   0.14044072    -373.40601     -373.26557      217.29934      2031.3592      1000         
       800   0.15224616    -373.42242     -373.27017      235.56551      1440.5064      1000         
       802   0.16544034    -373.44081     -373.27537      255.98043     -1305.0323      1000         
       804   0.090097171   -373.36247     -373.27237      139.40441     -2725.2357      1000         
       806   0.14956402    -373.42878     -373.27922      231.41553     -1462.8982      1000         
       808   0.14494108    -373.42706     -373.28212      224.26259      1347.5903      1000         
       810   0.11404132    -373.39459     -373.28055      176.45241      2347.005       1000         
       812   0.17251321    -373.46192     -373.28941      266.92405      353.61995      1000         
       814   0.098516922   -373.38468     -373.28616      152.43202     -1527.021       1000         
       816   0.11360111    -373.40292     -373.28932      175.77129     -1190.0228      1000         
       818   0.15362634    -373.44928     -373.29565      237.70102      1072.3423      1000         
       820   0.097249838   -373.38834     -373.29109      150.4715       2548.597       1000         
       822   0.16092605    -373.46083     -373.29991      248.99561      835.72492      1000         
       824   0.12201109    -373.42104     -373.29903      188.78377     -1815.1932      1000         
       826   0.089822283   -373.38842     -373.2986       138.97908     -2522.2506      1000         
       828   0.14907665    -373.45505     -373.30597      230.66143     -720.26223      1000         
       830   0.091603302   -373.39417     -373.30256      141.7348       1669.1764      1000         
       832   0.11619519    -373.42299     -373.30679      179.78503      1439.2104      1000         
       834   0.13198193    -373.44168     -373.3097       204.21133     -758.91563      1000         
       836   0.076423015   -373.38306     -373.30664      118.24683     -1828.0398      1000         
       838   0.13256139    -373.445       -373.31243      205.10791     -535.35734      1000         
       840   0.11659284    -373.42955     -373.31296      180.40029      1976.0708      1000         
       842   0.097273839   -373.40915     -373.31187      150.50863      2504.6382      1000         
       844   0.14718904    -373.46527     -373.31808      227.7408       184.21716      1000         
       846   0.084478205   -373.39898     -373.3145       130.71037     -1980.786       1000         
       848   0.1005225     -373.4176      -373.31708      155.53518     -1868.641       1000         
       850   0.12270319    -373.44379     -373.32109      189.85463      293.87198      1000         
       852   0.07089514    -373.38726     -373.31637      109.69373      1823.681       1000         
       854   0.13149776    -373.45461     -373.32311      203.4622       465.31152      1000         
       856   0.10401642    -373.42521     -373.32119      160.94121     -1683.1784      1000         
       858   0.087622139   -373.40814     -373.32052      135.57487     -1975.427       1000         
       860   0.1382381     -373.46441     -373.32617      213.89129      48.777562      1000         
       862   0.081185962   -373.40301     -373.32182      125.61639      2372.263       1000         
       864   0.10311205    -373.42851     -373.32539      159.54191      1957.5843      1000         
       866   0.11131997    -373.43782     -373.3265       172.24176     -447.82361      1000         
       868   0.069845693   -373.3933      -373.32346      108.06996     -1834.8242      1000         
       870   0.12220767    -373.4503      -373.3281       189.08793     -870.54315      1000         
       872   0.10156861    -373.42854     -373.32697      157.15378      1342.6281      1000         
       874   0.086374674   -373.41226     -373.32589      133.64471      1730.2196      1000         
       876   0.12842737    -373.45846     -373.33003      198.71148     -434.21716      1000         
       878   0.0803441     -373.40654     -373.3262       124.3138      -2292.2658      1000         
       880   0.10441302    -373.4327      -373.32828      161.55486     -1811.776       1000         
       882   0.12130356    -373.45203     -373.33073      187.68904      643.58689      1000         
       884   0.07004447    -373.39626     -373.32621      108.37752      2298.3982      1000         
       886   0.11201779    -373.44312     -373.3311       173.32147      1031.2286      1000         
       888   0.082633694   -373.41108     -373.32845      127.85642     -1113.0219      1000         
       890   0.077582834   -373.40511     -373.32753      120.04139     -1533.4758      1000         
       892   0.13290212    -373.46463     -373.33173      205.63511      237.44579      1000         
       894   0.094021962   -373.42139     -373.32737      145.47711      2164.348       1000         
       896   0.11347013    -373.44342     -373.32995      175.56862      1427.8481      1000         
       898   0.10806482    -373.43806     -373.33         167.20516     -1100.269       1000         
       900   0.062244458   -373.38886     -373.32662      96.308816     -2418.2402      1000         
       902   0.10865601    -373.439       -373.33034      168.11989     -1233.1333      1000         
       904   0.095188981   -373.42367     -373.32849      147.2828       1197.4779      1000         
       906   0.090699042   -373.41796     -373.32727      140.33567      1777.0089      1000         
       908   0.1308549     -373.4612      -373.33034      202.46751     -150.28068      1000         
       910   0.082391888   -373.40839     -373.326        127.48228     -1769.3973      1000         
       912   0.1005239     -373.42804     -373.32751      155.53735     -1126.0008      1000         
       914   0.11368301    -373.44244     -373.32876      175.898        1277.0363      1000         
       916   0.073665105   -373.39811     -373.32445      113.97961      2621.4055      1000         
       918   0.11927002    -373.44765     -373.32838      184.5426       969.57366      1000         
       920   0.093854731   -373.41923     -373.32537      145.21836     -1502.2845      1000         
       922   0.083473454   -373.40747     -373.324        129.15575     -2085.9496      1000         
       924   0.1275602     -373.45477     -373.32721      197.36973     -352.87317      1000         
       926   0.087283486   -373.40995     -373.32267      135.05089      1582.243       1000         
       928   0.10785526    -373.43225     -373.32439      166.88092      956.92938      1000         
       930   0.11475946    -373.43905     -373.32429      177.56356     -1293.0267      1000         
       932   0.077740166   -373.39818     -373.32044      120.28482     -2164.6198      1000         
       934   0.12625511    -373.44992     -373.32367      195.3504      -548.13927      1000         
       936   0.10912207    -373.43051     -373.32138      168.84102      2067.4369      1000         
       938   0.091251808   -373.4106      -373.31934      141.19094      2520.3014      1000         
       940   0.12480019    -373.44699     -373.32219      193.09926      249.86729      1000         
       942   0.076310406   -373.39366     -373.31735      118.0726      -1744.4405      1000         
       944   0.10147981    -373.42014     -373.31866      157.0164      -1422.5361      1000         
       946   0.12663469    -373.44622     -373.31959      195.93771      696.09251      1000         
       948   0.092459934   -373.4073      -373.31484      143.06024      1830.157       1000         
       950   0.13758446    -373.45606     -373.31848      212.87994      130.96172      1000         
       952   0.10477833    -373.41962     -373.31484      162.12008     -2090.1424      1000         
       954   0.087134917   -373.40021     -373.31308      134.82101     -2159.1147      1000         
       956   0.13264581    -373.4489      -373.31626      205.23852      103.34095      1000         
       958   0.089979824   -373.40124     -373.31126      139.22284      2372.727       1000         
       960   0.11582885    -373.42871     -373.31288      179.2182       1771.9156      1000         
       962   0.12793732    -373.44058     -373.31264      197.95323     -655.6874       1000         
       964   0.085055694   -373.39315     -373.30809      131.6039      -1759.5483      1000         
       966   0.13726485    -373.44861     -373.31135      212.38542     -456.75639      1000         
       968   0.12079098    -373.4297      -373.3089       186.89594      1781.2022      1000         
       970   0.10177012    -373.40799     -373.30622      157.46558      1861.2979      1000         
       972   0.14202686    -373.4516      -373.30957      219.75352     -630.58243      1000         
       974   0.083665468   -373.38752     -373.30385      129.45285     -2493.6233      1000         
       976   0.10843616    -373.41358     -373.30514      167.77973     -1791.6255      1000         
       978   0.13751471    -373.44398     -373.30647      212.77202      758.5452       1000         
       980   0.094338937   -373.39484     -373.3005       145.96756      2218.3777      1000         
       982   0.15223421    -373.45747     -373.30524      235.54703      629.17214      1000         
       984   0.11770679    -373.41849     -373.30078      182.12386     -1515.9731      1000         
       986   0.09891915    -373.39772     -373.2988       153.05437     -1555.1071      1000         
       988   0.15189716    -373.45438     -373.30248      235.02551      589.1375       1000         
       990   0.098931712   -373.3954      -373.29647      153.07381      2590.8592      1000         
       992   0.12930063    -373.42807     -373.29877      200.06263      1556.9666      1000         
       994   0.13828841    -373.43644     -373.29815      213.96914     -1221.0821      1000         
       996   0.084673825   -373.37783     -373.29316      131.01304     -2428.8377      1000         
       998   0.14240412    -373.43925     -373.29684      220.33724     -1048.1433      1000         
      1000   0.1262111     -373.42051     -373.29429      195.28231      1400.9957      1000         
      1002   0.11275265    -373.404       -373.29125      174.4585       1687.5846      1000         
      1004   0.16868613    -373.46393     -373.29524      261.00254     -613.33995      1000         
      1006   0.1041637     -373.39282     -373.28865      161.16909     -2183.883       1000         
      1008   0.12894763    -373.4191      -373.29015      199.51646     -1228.2563      1000         
      1010   0.14710609    -373.43881     -373.29171      227.61245      1453.1161      1000         
      1012   0.083581303   -373.36792     -373.28434      129.32262      2842.1884      1000         
      1014   0.15653127    -373.44716     -373.29063      242.19571      932.34116      1000         
      1016   0.12419887    -373.40946     -373.28526      192.16885     -1543.3965      1000         
      1018   0.1182245     -373.40173     -373.28351      182.9249      -1882.1749      1000         
      1020   0.18079039    -373.46846     -373.28767      279.73106      50.929891      1000         
      1022   0.10984477    -373.39006     -373.28022      169.95922      1977.6664      1000         
      1024   0.13873125    -373.42216     -373.28343      214.65433      912.36488      1000         
      1026   0.14073617    -373.42286     -373.28213      217.75648     -1711.5605      1000         
      1028   0.09115221    -373.36824     -373.27708      141.03684     -2590.3968      1000         
      1030   0.16805442    -373.44953     -373.28147      260.02512     -829.49452      1000         
      1032   0.14560153    -373.42382     -373.27822      225.28449      1986.2852      1000         
      1034   0.12340879    -373.39855     -373.27515      190.94639      2442.5241      1000         
      1036   0.16936032    -373.44826     -373.2789       262.0457       116.60895      1000         
      1038   0.096536813   -373.36825     -373.27172      149.36826     -1620.8075      1000         
      1040   0.14469499    -373.41871     -373.27402      223.88183     -1001.2036      1000         
      1042   0.17623137    -373.45169     -373.27546      272.67704      1308.7628      1000         
      1044   0.11522327    -373.38276     -373.26754      178.28121      2307.6314      1000         
      1046   0.18190963    -373.45593     -373.27402      281.46283      80.414146      1000         
      1048   0.11948879    -373.38694     -373.26745      184.8811      -2425.5409      1000         
      1050   0.10981707    -373.37587     -373.26605      169.91637     -2560.1461      1000         
      1052   0.18228289    -373.45288     -373.2706       282.04035     -217.883        1000         
      1054   0.12330463    -373.38557     -373.26226      190.78523      2178.0044      1000         
      1056   0.17805343    -373.44483     -373.26678      275.49626      1457.6342      1000         
      1058   0.16702276    -373.43105     -373.26402      258.42886     -891.5566       1000         
      1060   0.10482909    -373.36354     -373.25871      162.19863     -1687.6081      1000         
      1062   0.17952534    -373.44311     -373.26359      277.77369     -68.609812      1000         
      1064   0.14379856    -373.40274     -373.25894      222.49481      2423.4147      1000         
      1066   0.13857577    -373.39583     -373.25725      214.41376      2322.5877      1000         
      1068   0.18545351    -373.44545     -373.26         286.94616     -528.83918      1000         
      1070   0.10990862    -373.36249     -373.25258      170.05802     -2582.0188      1000         
      1072   0.16272126    -373.41793     -373.2552       251.77329     -1991.5055      1000         
      1074   0.18402697    -373.43978     -373.25576      284.73892      616.61424      1000         
      1076   0.13138881    -373.37943     -373.24804      203.29361      2004.5144      1000         
      1078   0.20931954    -373.4638      -373.25448      323.87329      171.82917      1000         
      1080   0.14126473    -373.38846     -373.2472       218.5743      -1928.731       1000         
      1082   0.13245346    -373.37839     -373.24594      204.94092     -1753.9586      1000         
      1084   0.19361599    -373.44391     -373.25029      299.57569      767.55636      1000         
      1086   0.12345154    -373.36438     -373.24092      191.01254      3065.6349      1000         
      1088   0.19216315    -373.43872     -373.24655      297.32777      1905.0955      1000         
      1090   0.17942283    -373.42212     -373.2427       277.61508     -1000.5919      1000         
      1092   0.12898516    -373.36661     -373.23762      199.57452     -2308.3828      1000         
      1094   0.20878724    -373.45141     -373.24262      323.04967     -936.22746      1000         
      1096   0.15877291    -373.39529     -373.23652      245.66413      1605.2322      1000         
      1098   0.15729768    -373.39304     -373.23575      243.38157      1642.1621      1000         
      1100   0.19865014    -373.43622     -373.23757      307.36487     -967.19523      1000         
      1102   0.12669559    -373.35689     -373.2302       196.03194     -2686.0461      1000         
      1104   0.18661805    -373.41961     -373.233        288.74801     -1663.2865      1000         
      1106   0.2001821     -373.43299     -373.23281      309.73523      1371.7358      1000         
      1108   0.1454697     -373.37073     -373.22526      225.08052      2936.7001      1000         
      1110   0.22170916    -373.45292     -373.23121      343.04334      980.39366      1000         
      1112   0.15769325    -373.3815      -373.22381      243.99361     -1487.1803      1000         
      1114   0.16210355    -373.38478     -373.22267      250.81754     -1731.0681      1000         
      1116   0.22583639    -373.45261     -373.22677      349.42926      491.63069      1000         
      1118   0.14808874    -373.36517     -373.21708      229.13287      2574.8116      1000         
      1120   0.20155458    -373.42376     -373.22221      311.85881      1221.3679      1000         
      1122   0.17905777    -373.39731     -373.21825      277.05023     -1781.5843      1000         
      1124   0.1345911     -373.34792     -373.21333      208.24841     -2984.7247      1000         
      1126   0.22336971    -373.44162     -373.21825      345.61266     -1241.4084      1000         
      1128   0.18906138    -373.40098     -373.21191      292.52849      1742.9309      1000         
      1130   0.19896477    -373.41041     -373.21144      307.85169      2108.5358      1000         
      1132   0.228737      -373.44123     -373.21249      353.91729     -312.45884      1000         
      1134   0.14631173    -373.35133     -373.20502      226.38336     -1981.5086      1000         
      1136   0.19685564    -373.40449     -373.20764      304.5883      -960.07097      1000         
      1138   0.21094081    -373.41811     -373.20717      326.38182      1962.4363      1000         
      1140   0.16749261    -373.36781     -373.20032      259.15585      3195.3723      1000         
      1142   0.2438926     -373.44952     -373.20563      377.36705      711.06756      1000         
      1144   0.18267658    -373.38122     -373.19854      282.6495      -2292.1602      1000         
      1146   0.17918973    -373.37635     -373.19716      277.25442     -2786.0063      1000         
      1148   0.23179147    -373.43267     -373.20088      358.64337     -445.88828      1000         
      1150   0.15849767    -373.35028     -373.19178      245.23827      1964.8226      1000         
      1152   0.22021763    -373.41653     -373.19631      340.73555      1025.4768      1000         
      1154   0.21638077    -373.40949     -373.19311      334.7989      -1565.4448      1000         
      1156   0.17195511    -373.35969     -373.18774      266.06052     -2316.56        1000         
      1158   0.24626339    -373.43859     -373.19232      381.0353      -172.28516      1000         
      1160   0.19963687    -373.38595     -373.18631      308.89161      2939.7242      1000         
      1162   0.19614961    -373.38125     -373.1851       303.49589      3059.8477      1000         
      1164   0.24204575    -373.42927     -373.18723      374.50948     -8.6379177      1000         
      1166   0.17900519    -373.35878     -373.17977      276.96888     -2421.7565      1000         
      1168   0.23719655    -373.41936     -373.18216      367.00647     -1922.4854      1000         
      1170   0.25355715    -373.43558     -373.18202      392.3207       777.63548      1000         
      1172   0.18319035    -373.35787     -373.17468      283.44444      2105.9157      1000         
      1174   0.23603556    -373.41589     -373.17986      365.21012     -79.367516      1000         
      1176   0.18154845    -373.35519     -373.17364      280.90399     -2617.0158      1000         
      1178   0.18737924    -373.35948     -373.1721       289.92577     -2459.8939      1000         
      1180   0.26538517    -373.44158     -373.1762       410.62181      473.16721      1000         
      1182   0.20845042    -373.37654     -373.16809      322.52853      3214.1804      1000         
      1184   0.25001304    -373.42115     -373.17114      386.83701      2237.4465      1000         
      1186   0.2397508     -373.40879     -373.16904      370.95859     -811.23914      1000         
      1188   0.1823286     -373.34569     -373.16336      282.11109     -2148.7948      1000         
      1190   0.25762108    -373.42569     -373.16807      398.60869     -566.60187      1000         
      1192   0.22948227    -373.39315     -373.16367      355.07041      2095.0827      1000         
      1194   0.2173036     -373.37863     -373.16133      336.22676      2003.9715      1000         
      1196   0.25925467    -373.42393     -373.16467      401.13628     -1077.6033      1000         
      1198   0.18175761    -373.3387      -373.15695      281.22761     -3186.8072      1000         
      1200   0.23530553    -373.39471     -373.1594       364.08056     -2143.331       1000         
      1202   0.27510001    -373.43552     -373.16042      425.65326      1099.8354      1000         
      1204   0.21967905    -373.37302     -373.15334      339.90222      2847.2261      1000         
      1206   0.27564303    -373.43477     -373.15912      426.49345      848.96781      1000         
      1208   0.2084101     -373.36141     -373.153        322.46614     -1717.3008      1000         
      1210   0.19224757    -373.34349     -373.15124      297.45838     -1738.4868      1000         
      1212   0.26959804    -373.42565     -373.15606      417.14024      831.24044      1000         
      1214   0.21629881    -373.36495     -373.14865      334.67209      3125.0881      1000         
      1216   0.26831881    -373.42049     -373.15217      415.16093      1686.9651      1000         
      1218   0.26912244    -373.42028     -373.15116      416.40436     -1705.8817      1000         
      1220   0.19644358    -373.34153     -373.14509      303.95074     -3067.641       1000         
      1222   0.2714447     -373.42193     -373.15049      419.99751     -1288.347       1000         
      1224   0.24521071    -373.39254     -373.14733      379.40652      1724.3321      1000         
      1226   0.2265532     -373.37093     -373.14437      350.53836      2027.3971      1000         
      1228   0.28195133    -373.43167     -373.14972      436.25408     -755.48256      1000         
      1230   0.18983249    -373.33165     -373.14182      293.72161     -2564.9979      1000         
      1232   0.22957165    -373.37399     -373.14442      355.20872     -1346.5682      1000         
      1234   0.27512029    -373.42222     -373.1471       425.68464      1884.1113      1000         
      1236   0.21855896    -373.35777     -373.13921      338.16914      3490.61        1000         
      1238   0.30444919    -373.452       -373.14755      471.06428      1122.961       1000         
      1240   0.24011106    -373.38159     -373.14148      371.516       -1896.0987      1000         
      1242   0.20964392    -373.34938     -373.13973      324.37519     -2319.6512      1000         
      1244   0.28419895    -373.43034     -373.14614      439.73175     -46.799757      1000         
      1246   0.20243673    -373.34087     -373.13843      313.22374      2257.644       1000         
      1248   0.25256893    -373.3956      -373.14303      390.79166      997.95745      1000         
      1250   0.27472551    -373.41816     -373.14344      425.07381     -2106.8203      1000         
      1252   0.20433741    -373.34184     -373.1375       316.1646      -3051.5651      1000         
      1254   0.28823284    -373.43211     -373.14387      445.97325     -878.04845      1000         
      1256   0.25591492    -373.3981      -373.14218      395.9688       2511.6344      1000         
      1258   0.21491907    -373.35313     -373.13821      332.53726      3085.6487      1000         
      1260   0.28591343    -373.43194     -373.14602      442.38451      230.50453      1000         
      1262   0.19329151    -373.33151     -373.13822      299.07364     -1961.1534      1000         
      1264   0.24148522    -373.3829      -373.14142      373.64219     -1365.761       1000         
      1266   0.30118259    -373.44764     -373.14645      466.00998      1241.161       1000         
      1268   0.21293343    -373.35054     -373.13761      329.46494      2568.9288      1000         
      1270   0.2811165     -373.42843     -373.14731      434.96238      142.04566      1000         
      1272   0.21539424    -373.35755     -373.14216      333.27247     -2730.0121      1000         
      1274   0.19389391    -373.3347      -373.1408       300.00572     -2870.5528      1000         
      1276   0.29760183    -373.4466      -373.149        460.4696      -210.54462      1000         
      1278   0.22621781    -373.36829     -373.14207      350.01943      2654.4622      1000         
      1280   0.27124353    -373.41896     -373.14772      419.68626      1931.9575      1000         
      1282   0.27423437    -373.42315     -373.14892      424.31388     -922.43649      1000         
      1284   0.17857435    -373.32198     -373.14341      276.30227     -2037.2355      1000         
      1286   0.25738417    -373.40805     -373.15067      398.24212     -391.26225      1000         
      1288   0.23726169    -373.38738     -373.15012      367.10726      2423.5047      1000         
      1290   0.22051549    -373.36805     -373.14753      341.19642      2583.2862      1000         
      1292   0.30086672    -373.45726     -373.15639      465.52124     -526.86511      1000         
      1294   0.1981786     -373.34771     -373.14953      306.63527     -2843.6104      1000         
      1296   0.23464779    -373.38814     -373.15349      363.06286     -2260.1877      1000         
      1298   0.2808091     -373.44089     -373.16008      434.48676      596.53243      1000         
      1300   0.1809587     -373.33221     -373.15125      279.99148      2463.9991      1000         
      1302   0.26535113    -373.42818     -373.16283      410.56914      621.98484      1000         
      1304   0.20891946    -373.36755     -373.15864      323.25425     -1852.4729      1000         
      1306   0.19138311    -373.3496      -373.15822      296.12083     -1969.2452      1000         
      1308   0.28814405    -373.45593     -373.16778      445.83587      457.1312       1000         
      1310   0.2012967     -373.36256     -373.16127      311.4598       3027.1189      1000         
      1312   0.24574828    -373.41418     -373.16843      380.23829      2046.1813      1000         
      1314   0.25264073    -373.42319     -373.17055      390.90275     -1085.721       1000         
      1316   0.17316254    -373.33975     -373.16659      267.92874     -2575.6357      1000         
      1318   0.2577108     -373.43275     -373.17504      398.7475      -1236.1551      1000         
      1320   0.22644718    -373.40227     -373.17582      350.37432      1570.0167      1000         
      1322   0.18851283    -373.3628      -373.17429      291.67974      2063.8866      1000         
      1324   0.24920333    -373.43256     -373.18336      385.58417     -543.62133      1000         
      1326   0.15721997    -373.33531     -373.17809      243.26132     -2493.7054      1000         
      1328   0.20848466    -373.39153     -373.18304      322.5815      -1770.3276      1000         
      1330   0.26255519    -373.45286     -373.19031      406.24306      1106.9383      1000         
      1332   0.18782007    -373.37213     -373.18431      290.60786      2927.3045      1000         
      1334   0.2560048     -373.45199     -373.19598      396.10786      1119.3123      1000         
      1336   0.18106679    -373.37439     -373.19333      280.15874     -1474.7752      1000         
      1338   0.1566308     -373.35078     -373.19415      242.34972     -1949.5833      1000         
      1340   0.23708998    -373.44091     -373.20382      366.84158      88.252513      1000         
      1342   0.1669612     -373.36606     -373.1991       258.33361      2385.9188      1000         
      1344   0.21983483    -373.42715     -373.20731      340.14325      1433.0535      1000         
      1346   0.22156986    -373.43191     -373.21034      342.82781     -1481.7878      1000         
      1348   0.15248116    -373.36078     -373.20829      235.92911     -2823.0179      1000         
      1350   0.22118394    -373.4385      -373.21732      342.23069     -1342.6474      1000         
      1352   0.17824786    -373.39645     -373.2182       275.79709      1612.0051      1000         
      1354   0.15584538    -373.37511     -373.21926      241.13447      2336.9257      1000         
      1356   0.20488556    -373.43221     -373.22732      317.01274      105.86476      1000         
      1358   0.13069713    -373.35489     -373.22419      202.2234      -1724.6525      1000         
      1360   0.17809954    -373.40794     -373.22984      275.5676      -1164.3746      1000         
      1362   0.20982434    -373.44617     -373.23634      324.65434      1337.8208      1000         
      1364   0.15406919    -373.38749     -373.23342      238.38623      2669.0537      1000         
      1366   0.20914269    -373.45285     -373.24371      323.59966      638.70556      1000         
      1368   0.14426623    -373.38696     -373.24269      223.21843     -2070.2532      1000         
      1370   0.12919173    -373.37354     -373.24435      199.89415     -2604.2351      1000         
      1372   0.19260083    -373.44578     -373.25318      298.00498     -499.70836      1000         
      1374   0.13537566    -373.38552     -373.25014      209.46233      1946.0358      1000         
      1376   0.17697238    -373.43488     -373.25791      273.82358      1438.2778      1000         
      1378   0.16573726    -373.42661     -373.26087      256.43984     -910.72579      1000         
      1380   0.10747836    -373.36719     -373.25971      166.29776     -1932.8192      1000         
      1382   0.16173209    -373.42925     -373.26752      250.24277     -439.64923      1000         
      1384   0.13126468    -373.39897     -373.2677       203.10155      2160.0039      1000         
      1386   0.1390388     -373.40947     -373.27043      215.13019      2435.1728      1000         
      1388   0.18074914    -373.45777     -373.27702      279.66723     -64.335315      1000         
      1390   0.11868839    -373.39419     -373.2755       183.64267     -2181.9067      1000         
      1392   0.14020361    -373.42072     -373.28052      216.93247     -1830.2459      1000         
      1394   0.13998998    -373.42482     -373.28483      216.60193      549.68998      1000         
      1396   0.095907195   -373.37876     -373.28286      148.39407      1948.2755      1000         
      1398   0.15152494    -373.44187     -373.29034      234.44959      388.30799      1000         
      1400   0.12179596    -373.41185     -373.29006      188.4509      -1785.2663      1000         
      1402   0.1202324     -373.4119      -373.29167      186.03166     -1930.8282      1000         
      1404   0.16247752    -373.46111     -373.29863      251.39616      271.13713      1000         
      1406   0.10447593    -373.40064     -373.29617      161.65219      2488.6776      1000         
      1408   0.12432606    -373.42578     -373.30145      192.36566      1800.2049      1000         
      1410   0.11820029    -373.42172     -373.30352      182.88745     -709.91908      1000         
[...]
     49274   0.11936524    -373.42406     -373.3047       184.68994      14.574017      1000         
     49276   0.13189939    -373.43779     -373.30589      204.08362      322.50064      1000         
     49278   0.10915532    -373.41176     -373.30261      168.89246      118.25358      1000         
     49280   0.14053563    -373.44606     -373.30552      217.44618     -904.60779      1000         
     49282   0.10712779    -373.40967     -373.30254      165.75534     -1485.1088      1000         
     49284   0.10877201    -373.4108      -373.30203      168.29938     -1023.7891      1000         
     49286   0.13768156    -373.44256     -373.30488      213.03018      188.91094      1000         
     49288   0.09817574    -373.39782     -373.29964      151.90412      1208.7488      1000         
     49290   0.13630917    -373.43972     -373.30341      210.90673      927.3076       1000         
     49292   0.120549      -373.42126     -373.30071      186.52153      166.8069       1000         
     49294   0.10001126    -373.39863     -373.29862      154.74416     -138.1728       1000         
     49296   0.13918839    -373.4406      -373.30141      215.36165      128.89135      1000         
     49298   0.10799444    -373.40517     -373.29718      167.09627      587.45002      1000         
     49300   0.12764279    -373.4261      -373.29846      197.49752      146.04118      1000         
     49302   0.14306032    -373.4408      -373.29774      221.35256     -851.93668      1000         
     49304   0.1027472     -373.39671     -373.29396      158.97739     -1199.6719      1000         
     49306   0.13225347    -373.42763     -373.29537      204.63148     -644.35454      1000         
     49308   0.12366635    -373.41778     -373.29412      191.3449       523.59229      1000         
     49310   0.10436219    -373.39518     -373.29082      161.47621      1055.6532      1000         
     49312   0.15067013    -373.44321     -373.29254      233.12698      353.04499      1000         
     49314   0.12299883    -373.41115     -373.28815      190.31207     -383.09707      1000         
     49316   0.13554713    -373.42258     -373.28703      209.72765     -488.52015      1000         
     49318   0.15327253    -373.4414      -373.28813      237.15357      132.88215      1000         
     49320   0.10244191    -373.3836      -373.28116      158.50503      729.7654       1000         
     49322   0.15214993    -373.43623     -373.28408      235.41662      194.81346      1000         
     49324   0.13597947    -373.41566     -373.27968      210.3966      -570.99281      1000         
     49326   0.11932791    -373.39532     -373.27599      184.63217     -701.39551      1000         
     49328   0.16209311    -373.44023     -373.27813      250.80138     -37.878977      1000         
     49330   0.11389324    -373.3842      -373.27031      176.22329      954.71635      1000         
     49332   0.14971537    -373.42131     -373.27159      231.64971      754.77859      1000         
     49334   0.16639251    -373.43451     -373.26812      257.4537      -336.83276      1000         
     49336   0.1355826     -373.39776     -373.26218      209.78252     -1082.9101      1000         
     49338   0.17966752    -373.44236     -373.2627       277.99368     -938.0975       1000         
     49340   0.14880435    -373.40562     -373.25681      230.24011      149.12043      1000         
     49342   0.13194144    -373.38501     -373.25307      204.14869      788.80454      1000         
     49344   0.17244426    -373.42457     -373.25213      266.81737      319.69624      1000         
     49346   0.13642404    -373.38113     -373.2447       211.08447     -187.00961      1000         
     49348   0.17468025    -373.41763     -373.24295      270.27705     -156.43899      1000         
     49350   0.19564753    -373.4356      -373.23995      302.71904      671.16741      1000         
     49352   0.15216435    -373.38288     -373.23071      235.43893      1277.1909      1000         
     49354   0.20791744    -373.43859     -373.23067      321.70386      356.60865      1000         
     49356   0.1767801     -373.39925     -373.22247      273.52607     -1020.8394      1000         
     49358   0.16706995    -373.38378     -373.21671      258.50188     -1731.2811      1000         
     49360   0.21412288    -373.4303      -373.21618      331.30533     -1174.7212      1000         
     49362   0.15912297    -373.36389     -373.20477      246.20578      249.46037      1000         
     49364   0.20467527    -373.40889     -373.20422      316.68736      705.66512      1000         
     49366   0.20899506    -373.40673     -373.19774      323.37123      318.18028      1000         
     49368   0.17237329    -373.36072     -373.18835      266.70756      47.020751      1000         
     49370   0.24950109    -373.43779     -373.18829      386.04488      359.79307      1000         
     49372   0.22724373    -373.40459     -373.17734      351.60679      1360.9196      1000         
     49374   0.23177436    -373.40424     -373.17247      358.6169       1379.0347      1000         
     49376   0.24978061    -373.41747     -373.16769      386.47738     -44.48508       1000         
     49378   0.18434206    -373.34158     -373.15724      285.22644     -1520.4052      1000         
     49380   0.22709593    -373.38265     -373.15555      351.37812     -2031.3898      1000         
     49382   0.24591541    -373.39556     -373.14964      380.49688     -959.4946       1000         
     49384   0.22723143    -373.36798     -373.14075      351.58777      411.45002      1000         
     49386   0.29233536    -373.43112     -373.13878      452.32095      503.86778      1000         
     49388   0.25567179    -373.38485     -373.12918      395.59262      49.235134      1000         
     49390   0.24877771    -373.37194     -373.12317      384.92562     -81.788555      1000         
     49392   0.28830961    -373.40949     -373.12118      446.09205      688.30207      1000         
     49394   0.24501239    -373.35535     -373.11034      379.09967      1727.1715      1000         
     49396   0.2947915     -373.40428     -373.10948      456.12126      1240.136       1000         
     49398   0.27693327    -373.37987     -373.10294      428.4898      -315.28631      1000         
     49400   0.24127798    -373.33626     -373.09498      373.32154     -1608.938       1000         
     49402   0.30188676    -373.39703     -373.09514      467.09952     -1624.244       1000         
     49404   0.28580642    -373.37216     -373.08636      442.21893     -285.55352      1000         
     49406   0.30969246    -373.39358     -373.08389      479.17703      525.70685      1000         
     49408   0.32477681    -373.40565     -373.08087      502.51656      143.82216      1000         
     49410   0.27652663    -373.34865     -373.07212      427.86062     -488.17699      1000         
     49412   0.32210643    -373.39477     -373.07266      498.38475     -456.79492      1000         
     49414   0.31704401    -373.384       -373.06696      490.55183      724.0181       1000         
     49416   0.30751586    -373.37097     -373.06345      475.80924      1582.8552      1000         
     49418   0.32597959    -373.38824     -373.06226      504.37757      900.66342      1000         
     49420   0.28043301    -373.33659     -373.05616      433.90483     -507.93218      1000         
     49422   0.30066889    -373.35622     -373.05555      465.21515     -1358.6645      1000         
     49424   0.32705656    -373.38048     -373.05343      506.04393     -683.50685      1000         
     49426   0.32637077    -373.37653     -373.05016      504.98284      604.88208      1000         
     49428   0.35221653    -373.40118     -373.04897      544.97313      811.80395      1000         
     49430   0.33520658    -373.38245     -373.04724      518.65419     -94.508489      1000         
     49432   0.30638046    -373.35        -373.04362      474.05248     -952.97496      1000         
     49434   0.32703989    -373.37149     -373.04445      506.01815     -732.01181      1000         
     49436   0.3240643     -373.36568     -373.04162      501.4141       362.07058      1000         
     49438   0.34219203    -373.38435     -373.04215      529.46255      815.17938      1000         
     49440   0.33359075    -373.37551     -373.04192      516.15407      138.39992      1000         
     49442   0.31387821    -373.35285     -373.03897      485.6535      -811.33501      1000         
     49444   0.33934128    -373.37998     -373.04064      525.05168     -748.31772      1000         
     49446   0.3471755     -373.38622     -373.03904      537.17331      549.85024      1000         
     49448   0.3517529     -373.39263     -373.04088      544.25578      1621.7359      1000         
     49450   0.33258269    -373.37307     -373.04049      514.59433      1256.7962      1000         
     49452   0.32003026    -373.3601      -373.04007      495.17236     -248.63755      1000         
     49454   0.31820603    -373.36011     -373.0419       492.3498      -1333.0265      1000         
     49456   0.30678595    -373.34725     -373.04047      474.67988     -1051.9426      1000         
     49458   0.33468904    -373.37931     -373.04462      517.85342     -227.03163      1000         
     49460   0.32457337    -373.36756     -373.04299      502.20178      66.496128      1000         
     49462   0.34121662    -373.38696     -373.04574      527.95334     -575.53157      1000         
     49464   0.34375208    -373.39158     -373.04783      531.87637     -980.4027       1000         
     49466   0.30915023    -373.35567     -373.04652      478.33805     -58.603909      1000         
     49468   0.33456075    -373.3865      -373.05193      517.65492      1435.4459      1000         
     49470   0.3060643     -373.35676     -373.0507       473.56329      2279.5965      1000         
     49472   0.31373607    -373.36818     -373.05444      485.43358      1397.616       1000         
     49474   0.33359251    -373.39061     -373.05702      516.1568      -382.89109      1000         
     49476   0.30112515    -373.35791     -373.05679      465.9211      -1309.6684      1000         
     49478   0.32355683    -373.38443     -373.06087      500.62892     -1149.3431      1000         
     49480   0.31377237    -373.37793     -373.06416      485.48974     -512.77164      1000         
     49482   0.28173972    -373.34563     -373.06389      435.92666     -424.16844      1000         
     49484   0.33914664    -373.40912     -373.06997      524.75052     -1117.8622      1000         
     49486   0.31074612    -373.38162     -373.07088      480.80732     -971.63539      1000         
     49488   0.29672356    -373.36872     -373.072        459.11068      320.58516      1000         
     49490   0.32183364    -373.40229     -373.08045      497.96268      1833.5411      1000         
     49492   0.24921942    -373.32523     -373.07601      385.60907      2422.6923      1000         
     49494   0.31710326    -373.40164     -373.08454      490.64351      1055.2991      1000         
     49496   0.31176436    -373.39906     -373.08729      482.38281     -578.68549      1000         
     49498   0.2634896     -373.34911     -373.08562      407.68885     -1126.8453      1000         
     49500   0.33005543    -373.42668     -373.09663      510.68399     -858.65062      1000         
     49502   0.25446951    -373.34753     -373.09306      393.73237     -148.66242      1000         
     49504   0.27196171    -373.37089     -373.09893      420.79748     -479.21808      1000         
     49506   0.30248371    -373.40738     -373.1049       468.02317     -1211.9155      1000         
     49508   0.2309542     -373.3325      -373.10154      357.34789     -851.30236      1000         
     49510   0.3064901     -373.41792     -373.11143      474.22211      223.3215       1000         
     49512   0.27492037    -373.38807     -373.11315      425.37531      1635.439       1000         
     49514   0.23413546    -373.34734     -373.11321      362.27015      1814.6827      1000         
     49516   0.30786335    -373.43044     -373.12257      476.34691      395.89101      1000         
     49518   0.24077876    -373.36105     -373.12027      372.5491      -604.96301      1000         
     49520   0.27015782    -373.39576     -373.1256       418.00637     -756.24623      1000         
     49522   0.29427914    -373.42767     -373.13339      455.3285      -100.80493      1000         
     49524   0.20802279    -373.33679     -373.12877      321.86687      445.43181      1000         
     49526   0.28204512    -373.42185     -373.13981      436.39921     -388.80237      1000         
     49528   0.22722027    -373.36669     -373.13947      351.57051     -999.47446      1000         
     49530   0.20468445    -373.34418     -373.1395       316.70156     -725.13896      1000         
     49532   0.29659954    -373.44764     -373.15104      458.91878      181.74187      1000         
     49534   0.21675488    -373.36246     -373.14571      335.37774      1249.816       1000         
     49536   0.26749272    -373.42224     -373.15475      413.88275      699.90596      1000         
     49538   0.25717429    -373.41583     -373.15866      397.91739     -464.0853       1000         
     49540   0.17389576    -373.32887     -373.15498      269.06323     -814.25345      1000         
     49542   0.26279474    -373.42903     -373.16623      406.61372     -393.18932      1000         
     49544   0.21389971    -373.37839     -373.16449      330.96003      803.93354      1000         
     49546   0.21382058    -373.3813      -373.16748      330.8376       1013.1965      1000         
     49548   0.2590147     -373.43438     -373.17536      400.76498      53.025383      1000         
     49550   0.16823931    -373.33865     -373.17041      260.31119     -503.28565      1000         
     49551   0.18372796    -373.3565      -373.17278      284.27628     -600.88752      1000         
Loop time of 88.0733 on 1 procs for 49550 steps with 6 atoms

Performance: 48.609 ns/day, 0.494 hours/ns, 562.600 timesteps/s, 3.376 katom-step/s
160.7% CPU use with 1 MPI tasks x 1 OpenMP threads

MPI task timing breakdown:
Section |  min time  |  avg time  |  max time  |%varavg| %total
---------------------------------------------------------------
Pair    | 85.594     | 85.594     | 85.594     |   0.0 | 97.19
Neigh   | 0.044227   | 0.044227   | 0.044227   |   0.0 |  0.05
Comm    | 0.10101    | 0.10101    | 0.10101    |   0.0 |  0.11
Output  | 1.2844     | 1.2844     | 1.2844     |   0.0 |  1.46
Modify  | 0.98757    | 0.98757    | 0.98757    |   0.0 |  1.12
Other   |            | 0.0618     |            |       |  0.07

Nlocal:              6 ave           6 max           6 min
Histogram: 1 0 0 0 0 0 0 0 0 0
Nghost:            156 ave         156 max         156 min
Histogram: 1 0 0 0 0 0 0 0 0 0
Neighs:              0 ave           0 max           0 min
Histogram: 1 0 0 0 0 0 0 0 0 0
FullNghs:           30 ave          30 max          30 min
Histogram: 1 0 0 0 0 0 0 0 0 0

Total # of neighbors = 30
Ave neighs/atom = 5
Neighbor list builds = 4955
Dangerous builds not checked

# Write restart files every 100 steps for the final 1000 steps
restart 5 ./restart_NVT/restart_NVT300.*.bin
run 50
Generated 0 of 1 mixed pair_coeff terms from geometric mixing rule
Per MPI rank memory allocation (min/avg/max) = 3.81 | 3.81 | 3.81 Mbytes
   Step         KinEng         PotEng         TotEng          Temp          Press          Volume    
     49551   0.18372796    -373.3565      -373.17278      284.27628     -600.88752      1000         
     49552   0.23980229    -373.41896     -373.17916      371.03826     -545.09888      1000         
     49554   0.2375216     -373.41985     -373.18233      367.50942      220.74217      1000         
     49556   0.18555325    -373.36524     -373.17969      287.10048      553.10228      1000         
     49558   0.26281712    -373.45311     -373.19029      406.64834     -497.28037      1000         
     49560   0.17938097    -373.36619     -373.18681      277.55032     -1199.9071      1000         
     49562   0.18626121    -373.37646     -373.1902       288.19588     -1052.5873      1000         
     49564   0.23173968    -373.42931     -373.19757      358.56324      105.25884      1000         
     49566   0.15847563    -373.35044     -373.19196      245.20417      1459.9386      1000         
     49568   0.23571189    -373.4377      -373.20199      364.7093       1234.7491      1000         
     49570   0.1958467     -373.39735     -373.2015       303.0272       421.05548      1000         
     49572   0.16515738    -373.3657      -373.20054      255.54262     -139.06812      1000         
     49574   0.24902804    -373.45914     -373.21011      385.31295     -159.97344      1000         
     49576   0.17517639    -373.38072     -373.20554      271.04471      406.7334       1000         
     49578   0.19867701    -373.40989     -373.21121      307.40645     -92.430238      1000         
     49580   0.20103056    -373.41585     -373.21482      311.04803     -1221.4645      1000         
     49582   0.13176913    -373.34242     -373.21066      203.88208     -1661.1498      1000         
     49584   0.21185124    -373.43107     -373.21922      327.7905      -1145.3177      1000         
     49586   0.18422393    -373.4025      -373.21827      285.04367      499.50761      1000         
     49588   0.17321098    -373.39187     -373.21866      268.00369      1537.5389      1000         
     49590   0.22370266    -373.44943     -373.22573      346.12781      1149.4165      1000         
     49592   0.14796475    -373.36893     -373.22097      228.94103      516.66166      1000         
     49594   0.19031644    -373.41727     -373.22696      294.47041      66.132116      1000         
     49596   0.19317763    -373.42222     -373.22904      298.89743      356.54133      1000         
     49598   0.15053674    -373.37708     -373.22654      232.92058      523.06499      1000         
     49600   0.20259857    -373.43645     -373.23385      313.47415     -452.5829       1000         
     49601   0.18429215    -373.4177      -373.23341      285.14922     -1014.6192      1000         
Loop time of 0.0917357 on 1 procs for 50 steps with 6 atoms

Performance: 47.092 ns/day, 0.510 hours/ns, 545.044 timesteps/s, 3.270 katom-step/s
164.3% CPU use with 1 MPI tasks x 1 OpenMP threads

MPI task timing breakdown:
Section |  min time  |  avg time  |  max time  |%varavg| %total
---------------------------------------------------------------
Pair    | 0.088374   | 0.088374   | 0.088374   |   0.0 | 96.34
Neigh   | 9.0038e-05 | 9.0038e-05 | 9.0038e-05 |   0.0 |  0.10
Comm    | 0.00011991 | 0.00011991 | 0.00011991 |   0.0 |  0.13
Output  | 0.0019505  | 0.0019505  | 0.0019505  |   0.0 |  2.13
Modify  | 0.0011041  | 0.0011041  | 0.0011041  |   0.0 |  1.20
Other   |            | 9.684e-05  |            |       |  0.11

Nlocal:              6 ave           6 max           6 min
Histogram: 1 0 0 0 0 0 0 0 0 0
Nghost:            156 ave         156 max         156 min
Histogram: 1 0 0 0 0 0 0 0 0 0
Neighs:              0 ave           0 max           0 min
Histogram: 1 0 0 0 0 0 0 0 0 0
FullNghs:           30 ave          30 max          30 min
Histogram: 1 0 0 0 0 0 0 0 0 0

Total # of neighbors = 30
Ave neighs/atom = 5
Neighbor list builds = 10
Dangerous builds not checked

write_data out.lmp
System init for write_data ...
Generated 0 of 1 mixed pair_coeff terms from geometric mixing rule
Total wall time: 0:01:30
