LAMMPS data file via write_data, version 2 Aug 2023, timestep = 49601, units = metal

6 atoms
2 atom types

0 10 xlo xhi
0 10 ylo yhi
0 10 zlo zhi

Masses

1 12.0107
2 1.00794

Atoms # atomic

4 2 4.621909115619589 3.609496781933036 5.557244687664977 0 0 0
2 1 4.904998403183184 4.350520782928841 4.83218223803059 0 0 0
3 2 5.134664580835164 3.963647665060728 3.805337196895784 0 0 0
6 2 4.8669584598556295 6.035094074594258 6.188670625389945 0 0 0
1 1 5.096483556111875 5.650060304308253 5.169523326343048 0 0 0
5 2 5.36126210466879 6.384419577161989 4.430264791606764 0 0 0

Velocities

4 10.012277983363363 10.485300288422406 -10.58195589582202
2 -5.313378746397566 -0.8676946405018625 4.3488716037128015
3 -22.80653630364377 -15.986906098821553 -6.7133094090071515
6 19.591762930160463 4.471478004052651 25.191360688304925
1 5.041768548661298 0.4603983299710186 -3.645161005552943
5 -3.560974060491373 5.883505782116182 -16.281571583765086
