ITEM: TIMESTEP
49600
ITEM: NUMBER OF ATOMS
6
ITEM: BOX BOUNDS pp pp pp
0.0000000000000000e+00 1.0000000000000000e+01
0.0000000000000000e+00 1.0000000000000000e+01
0.0000000000000000e+00 1.0000000000000000e+01
ITEM: ATOMS id type x y z vx vy vz
4 2 4.62514 3.60172 5.59204 11.3866 11.6183 -12.5036
2 1 4.89801 4.35155 4.8332 -6.38477 -1.49135 5.08183
3 2 5.09932 3.97484 3.81311 -23.8386 -19.8422 -12.2409
5 2 5.34967 6.37435 4.42421 -7.79587 1.51998 -12.3585
6 2 4.90529 6.0358 6.16196 21.9934 6.66773 27.7248
1 1 5.10392 5.64953 5.16768 6.23829 1.49439 -4.29481
ITEM: TIMESTEP
49700
ITEM: NUMBER OF ATOMS
6
ITEM: BOX BOUNDS pp pp pp
0.0000000000000000e+00 1.0000000000000000e+01
0.0000000000000000e+00 1.0000000000000000e+01
0.0000000000000000e+00 1.0000000000000000e+01
ITEM: ATOMS id type x y z vx vy vz
4 2 4.77209 3.56706 5.61179 -5.61697 -18.5511 -7.0302
2 1 4.52847 4.59617 5.26518 -3.70891 4.92212 7.67546
3 2 3.50981 4.86254 5.40193 18.0063 10.5499 11.0492
5 2 5.2123 6.46269 4.37472 8.94111 11.14 5.02604
6 2 6.52215 5.05429 4.62872 -8.31449 -6.0252 -18.7661
1 1 5.47037 5.40828 4.73354 2.61661 -4.67989 -6.85967
ITEM: TIMESTEP
49800
ITEM: NUMBER OF ATOMS
6
ITEM: BOX BOUNDS pp pp pp
0.0000000000000000e+00 1.0000000000000000e+01
0.0000000000000000e+00 1.0000000000000000e+01
0.0000000000000000e+00 1.0000000000000000e+01
ITEM: ATOMS id type x y z vx vy vz
4 2 3.65615 4.70322 5.68202 -5.85381 20.7555 5.58882
2 1 4.65515 5.03728 5.58469 1.39741 4.77842 2.19822
3 2 5.2066 5.33493 6.53104 22.1238 -5.12789 7.03853
5 2 6.34412 5.28674 4.32429 -17.759 -34.6889 -6.88723
6 2 4.87913 4.68527 3.46003 -8.64037 11.5746 2.91369
1 1 5.33784 4.96183 4.41569 -0.547352 -4.15013 -2.92445
ITEM: TIMESTEP
49900
ITEM: NUMBER OF ATOMS
6
ITEM: BOX BOUNDS pp pp pp
0.0000000000000000e+00 1.0000000000000000e+01
0.0000000000000000e+00 1.0000000000000000e+01
0.0000000000000000e+00 1.0000000000000000e+01
ITEM: ATOMS id type x y z vx vy vz
4 2 5.2617 6.4979 5.48688 16.1797 -10.4356 -7.75144
2 1 5.17016 5.36317 5.54285 8.28613 1.3398 -2.94843
3 2 5.39061 4.93651 6.50141 -8.16981 8.98307 9.8578
5 2 4.72113 3.52955 4.50344 -20.216 -20.6008 15.886
6 2 4.63016 5.0829 3.52117 10.8228 10.9576 -12.4425
1 1 4.82974 4.63286 4.45623 -8.17004 -0.408638 2.48268
ITEM: TIMESTEP
50000
ITEM: NUMBER OF ATOMS
6
ITEM: BOX BOUNDS pp pp pp
0.0000000000000000e+00 1.0000000000000000e+01
0.0000000000000000e+00 1.0000000000000000e+01
0.0000000000000000e+00 1.0000000000000000e+01
ITEM: ATOMS id type x y z vx vy vz
6 2 4.30563 3.90502 4.04257 -12.0909 -4.16141 18.3856
1 1 4.39412 4.77006 4.81544 -2.64764 1.53809 4.11237
4 2 6.521 4.77567 4.89312 2.32948 -29.4953 -0.0235802
5 2 3.46424 5.24187 5.13386 3.24625 22.4503 -2.55639
2 1 5.60428 5.23417 5.18444 3.28227 -0.421622 -3.01027
3 2 5.7306 6.02659 5.9337 -1.0471 -2.09746 -28.9383
ITEM: TIMESTEP
50100
ITEM: NUMBER OF ATOMS
6
ITEM: BOX BOUNDS pp pp pp
0.0000000000000000e+00 1.0000000000000000e+01
0.0000000000000000e+00 1.0000000000000000e+01
0.0000000000000000e+00 1.0000000000000000e+01
ITEM: ATOMS id type x y z vx vy vz
6 2 4.01081 4.96671 6.17678 17.3465 13.2511 6.94046
1 1 4.39527 5.18873 5.22729 1.63475 8.63207 2.41706
4 2 6.26721 4.18431 5.38455 -3.54535 9.10932 6.8797
5 2 3.71991 5.81905 4.60967 12.7768 -23.627 8.56191
2 1 5.6092 4.80591 4.77736 -3.15168 -7.88799 -1.78406
3 2 5.95125 5.09341 3.77541 -8.50211 -7.59982 -29.9249
ITEM: TIMESTEP
50200
ITEM: NUMBER OF ATOMS
6
ITEM: BOX BOUNDS pp pp pp
0.0000000000000000e+00 1.0000000000000000e+01
0.0000000000000000e+00 1.0000000000000000e+01
0.0000000000000000e+00 1.0000000000000000e+01
ITEM: ATOMS id type x y z vx vy vz
6 2 5.52321 6.4306 5.27903 6.92067 -9.96867 -28.3673
1 1 4.8216 5.59177 5.26887 8.69196 2.75484 -1.05119
4 2 6.22432 4.20836 4.39706 -9.39373 0.321663 -16.728
5 2 3.8286 5.79444 5.59895 -25.4177 0.111459 19.4356
2 1 5.17206 4.41052 4.73404 -6.49283 -2.52652 1.24574
3 2 4.50186 3.53879 4.69204 1.6857 6.8148 23.3414
ITEM: TIMESTEP
50300
ITEM: NUMBER OF ATOMS
6
ITEM: BOX BOUNDS pp pp pp
0.0000000000000000e+00 1.0000000000000000e+01
0.0000000000000000e+00 1.0000000000000000e+01
0.0000000000000000e+00 1.0000000000000000e+01
ITEM: ATOMS id type x y z vx vy vz
6 2 5.1467 6.33977 4.16763 -12.0675 18.3739 -17.8339
1 1 5.32858 5.58267 4.99569 6.63619 -4.68665 -2.9082
4 2 3.93794 4.13419 4.28149 -11.1359 18.2294 14.1114
5 2 6.09678 5.84006 5.76408 1.24201 -15.1618 -20.3285
2 1 4.66883 4.41654 5.00372 -6.48985 2.24425 4.93791
3 2 4.85194 3.69495 5.79568 20.2176 7.66223 -0.135152
ITEM: TIMESTEP
50400
ITEM: NUMBER OF ATOMS
6
ITEM: BOX BOUNDS pp pp pp
0.0000000000000000e+00 1.0000000000000000e+01
0.0000000000000000e+00 1.0000000000000000e+01
0.0000000000000000e+00 1.0000000000000000e+01
ITEM: ATOMS id type x y z vx vy vz
6 2 5.75199 6.23153 4.43088 -5.7559 -38.977 14.0881
1 1 5.44992 5.20257 4.55517 0.332084 -2.51036 -3.96898
4 2 4.16624 5.51402 6.19334 21.3788 17.6808 18.1891
5 2 5.85353 4.50649 3.76377 -22.1801 -10.5927 -14.6984
2 1 4.549 4.79722 5.45325 1.16154 5.28347 2.91716
3 2 4.24354 3.75003 5.51348 -11.241 -1.15569 -5.0453
ITEM: TIMESTEP
50500
ITEM: NUMBER OF ATOMS
6
ITEM: BOX BOUNDS pp pp pp
0.0000000000000000e+00 1.0000000000000000e+01
0.0000000000000000e+00 1.0000000000000000e+01
0.0000000000000000e+00 1.0000000000000000e+01
ITEM: ATOMS id type x y z vx vy vz
6 2 6.01669 4.12316 4.21967 -1.20384 -21.3549 5.17324
1 1 5.13473 4.76802 4.38589 -6.1803 -5.81998 -0.740723
4 2 5.53068 4.99903 6.45107 -6.80306 -11.8022 -10.6524
5 2 4.50985 4.97755 3.59987 -4.39857 19.6151 17.035
2 1 4.86042 5.23293 5.60529 5.86959 5.62418 0.0259949
3 2 4.003 5.88853 5.83631 16.108 15.8752 -3.03911
ITEM: TIMESTEP
50600
ITEM: NUMBER OF ATOMS
6
ITEM: BOX BOUNDS pp pp pp
0.0000000000000000e+00 1.0000000000000000e+01
0.0000000000000000e+00 1.0000000000000000e+01
0.0000000000000000e+00 1.0000000000000000e+01
ITEM: ATOMS id type x y z vx vy vz
6 2 3.77643 4.09793 5.03587 -29.8336 11.633 17.1051
1 1 4.58581 4.6509 4.6194 -3.42698 1.53204 4.26282
4 2 5.37136 5.31675 6.4722 -7.24768 0.238046 4.04239
5 2 4.64712 4.73459 3.47405 0.868054 -9.42502 -8.43013
2 1 5.41346 5.34532 5.38714 5.78096 0.801366 -3.994
3 2 6.21625 5.89543 4.94179 8.16297 -30.2511 -15.9206
ITEM: TIMESTEP
50700
ITEM: NUMBER OF ATOMS
6
ITEM: BOX BOUNDS pp pp pp
0.0000000000000000e+00 1.0000000000000000e+01
0.0000000000000000e+00 1.0000000000000000e+01
0.0000000000000000e+00 1.0000000000000000e+01
ITEM: ATOMS id type x y z vx vy vz
6 2 3.66007 5.8499 4.90569 25.4562 -5.79388 -14.2488
1 1 4.34782 4.9308 5.01221 -2.93123 5.17826 6.44226
4 2 6.09599 6.03241 4.80568 2.13173 -6.09785 -19.0424
5 2 3.84342 3.99126 5.16916 -2.34726 5.65323 19.725
2 1 5.66005 5.06665 4.98935 0.833031 -3.46937 -6.26018
3 2 6.30925 4.1564 5.10274 -0.238278 -14.1248 11.3967
ITEM: TIMESTEP
50800
ITEM: NUMBER OF ATOMS
6
ITEM: BOX BOUNDS pp pp pp
0.0000000000000000e+00 1.0000000000000000e+01
0.0000000000000000e+00 1.0000000000000000e+01
0.0000000000000000e+00 1.0000000000000000e+01
ITEM: ATOMS id type x y z vx vy vz
6 2 3.69243 5.70173 4.81004 -11.3853 1.90353 -0.634027
1 1 4.57679 5.4183 5.29401 4.07556 5.19692 3.44565
4 2 5.18443 4.08493 3.73289 -15.4285 -16.5875 20.0984
5 2 4.83982 5.86186 6.24132 24.008 6.02525 -29.1054
2 1 5.42089 4.58943 4.70914 -3.70047 -4.53135 -2.12081
3 2 6.31336 4.25893 5.18004 -1.6638 0.727713 -6.1459
ITEM: TIMESTEP
50900
ITEM: NUMBER OF ATOMS
6
ITEM: BOX BOUNDS pp pp pp
0.0000000000000000e+00 1.0000000000000000e+01
0.0000000000000000e+00 1.0000000000000000e+01
0.0000000000000000e+00 1.0000000000000000e+01
ITEM: ATOMS id type x y z vx vy vz
6 2 4.73608 6.0141 6.14381 22.5691 4.84604 1.21139
1 1 5.05869 5.63274 5.16463 6.05647 -1.23414 -0.415369
4 2 4.47302 3.66323 5.49032 0.470761 -4.22234 34.6928
5 2 5.54579 6.35021 4.46925 0.588844 24.3984 -29.3921
2 1 4.94021 4.36426 4.83983 -6.381 -1.30708 -0.719255
3 2 5.26062 4.00773 3.84538 -19.7615 5.25919 7.00822
ITEM: TIMESTEP
51000
ITEM: NUMBER OF ATOMS
6
ITEM: BOX BOUNDS pp pp pp
0.0000000000000000e+00 1.0000000000000000e+01
0.0000000000000000e+00 1.0000000000000000e+01
0.0000000000000000e+00 1.0000000000000000e+01
ITEM: ATOMS id type x y z vx vy vz
6 2 6.5468 5.17403 4.78429 -4.04853 -18.944 -26.4263
1 1 5.45061 5.41553 4.774 2.43609 -0.760737 -5.13078
5 2 5.19842 6.36546 4.27282 7.65479 -22.4719 11.4287
4 2 4.87844 3.66032 5.72954 -14.5978 13.0668 -6.68636
2 1 4.54211 4.58175 5.22536 0.185789 1.53716 4.77931
3 2 3.46552 4.83222 5.22287 -20.2511 19.0972 25.8721
ITEM: TIMESTEP
51100
ITEM: NUMBER OF ATOMS
6
ITEM: BOX BOUNDS pp pp pp
0.0000000000000000e+00 1.0000000000000000e+01
0.0000000000000000e+00 1.0000000000000000e+01
0.0000000000000000e+00 1.0000000000000000e+01
ITEM: ATOMS id type x y z vx vy vz
6 2 4.95199 4.5129 3.58367 -13.2183 14.6953 -1.1883
1 1 5.33175 4.99972 4.42432 -2.87382 -6.70406 -3.0507
5 2 6.31343 5.43202 4.37879 12.9565 -15.7719 -4.35551
4 2 3.65432 4.5556 5.69436 -12.075 15.176 13.7856
2 1 4.67134 4.99958 5.56802 3.20826 7.61923 3.25067
3 2 5.04587 5.50743 6.43629 8.35157 -25.0046 -10.6246
ITEM: TIMESTEP
51200
ITEM: NUMBER OF ATOMS
6
ITEM: BOX BOUNDS pp pp pp
0.0000000000000000e+00 1.0000000000000000e+01
0.0000000000000000e+00 1.0000000000000000e+01
0.0000000000000000e+00 1.0000000000000000e+01
ITEM: ATOMS id type x y z vx vy vz
6 2 4.47892 5.13446 3.51482 -9.01368 1.23404 -18.8595
1 1 4.87241 4.64007 4.46265 -3.94336 -1.83685 3.46462
5 2 4.90685 3.54388 4.44553 -34.8059 -11.489 -1.82557
4 2 5.07788 6.41046 5.53922 29.8686 -0.811858 -13.3397
2 1 5.13092 5.36268 5.53892 4.7842 2.70357 -1.21346
3 2 5.49918 4.87801 6.48355 3.93145 0.73899 7.1998
ITEM: TIMESTEP
51300
ITEM: NUMBER OF ATOMS
6
ITEM: BOX BOUNDS pp pp pp
0.0000000000000000e+00 1.0000000000000000e+01
0.0000000000000000e+00 1.0000000000000000e+01
0.0000000000000000e+00 1.0000000000000000e+01
ITEM: ATOMS id type x y z vx vy vz
6 2 4.33129 4.03629 3.99088 -15.4112 8.63146 31.1058
1 1 4.41812 4.77378 4.78238 -4.63477 -0.126136 3.36095
5 2 3.43764 5.04442 5.2834 10.6215 20.1393 -11.8592
4 2 6.53562 4.92431 4.68986 3.07415 -16.6799 13.2179
2 1 5.58488 5.23124 5.21977 3.19986 -2.1848 -5.5779
3 2 5.66212 5.93476 6.01202 18.814 15.4464 -6.0472
ITEM: TIMESTEP
51400
ITEM: NUMBER OF ATOMS
6
ITEM: BOX BOUNDS pp pp pp
0.0000000000000000e+00 1.0000000000000000e+01
0.0000000000000000e+00 1.0000000000000000e+01
0.0000000000000000e+00 1.0000000000000000e+01
ITEM: ATOMS id type x y z vx vy vz
6 2 3.95643 4.78341 6.12681 6.58826 27.1096 16.6157
1 1 4.37986 5.16499 5.20016 1.23584 3.9716 3.34795
5 2 3.83138 5.85753 4.68188 -5.26963 4.35077 -0.188561
4 2 6.2425 4.10829 5.29964 11.9266 -11.2621 2.73388
2 1 5.61367 4.83548 4.80254 -1.65202 -2.63212 -4.65585
3 2 6.04925 5.24483 3.86127 -8.28603 -36.1596 -3.57596
ITEM: TIMESTEP
51500
ITEM: NUMBER OF ATOMS
6
ITEM: BOX BOUNDS pp pp pp
0.0000000000000000e+00 1.0000000000000000e+01
0.0000000000000000e+00 1.0000000000000000e+01
0.0000000000000000e+00 1.0000000000000000e+01
ITEM: ATOMS id type x y z vx vy vz
6 2 5.53061 6.35188 5.52468 23.8127 29.9198 -17.7668
1 1 4.80487 5.58489 5.2533 3.06089 -0.255173 -0.382274
5 2 3.71433 5.83203 5.51631 1.99697 19.3572 15.9217
4 2 6.24283 4.21606 4.50992 -23.6521 -5.09422 -12.8095
2 1 5.19767 4.41337 4.7456 -2.01297 -2.2853 -0.243027
3 2 4.48442 3.62037 4.46399 -14.6446 -13.9103 22.1057
ITEM: TIMESTEP
51600
ITEM: NUMBER OF ATOMS
6
ITEM: BOX BOUNDS pp pp pp
0.0000000000000000e+00 1.0000000000000000e+01
0.0000000000000000e+00 1.0000000000000000e+01
0.0000000000000000e+00 1.0000000000000000e+01
ITEM: ATOMS id type x y z vx vy vz
6 2 5.27542 6.35445 4.14144 1.3974 -18.367 19.5782
1 1 5.29947 5.59571 5.01002 3.82108 1.15733 -5.33875
5 2 5.93071 5.91991 5.84279 27.4677 -8.20287 -13.7983
4 2 4.06588 4.08768 4.14936 -30.4752 1.58036 18.165
2 1 4.7 4.39622 4.99333 -3.8057 0.719131 3.37668
3 2 4.73681 3.73373 5.82833 1.42683 2.6294 -0.564652
ITEM: TIMESTEP
51700
ITEM: NUMBER OF ATOMS
6
ITEM: BOX BOUNDS pp pp pp
0.0000000000000000e+00 1.0000000000000000e+01
0.0000000000000000e+00 1.0000000000000000e+01
0.0000000000000000e+00 1.0000000000000000e+01
ITEM: ATOMS id type x y z vx vy vz
6 2 5.67034 6.24379 4.42173 14.4539 8.39566 -4.74672
1 1 5.45054 5.22023 4.54607 1.48228 -5.67098 -4.38851
5 2 6.03863 4.54149 3.96444 -39.7986 8.93143 0.0635435
4 2 3.93654 5.44975 6.06204 17.4219 17.381 23.4694
2 1 4.55426 4.78385 5.45167 0.83075 2.34282 2.07768
3 2 4.2998 3.71598 5.58064 -19.6395 4.95061 8.74981
ITEM: TIMESTEP
51800
ITEM: NUMBER OF ATOMS
6
ITEM: BOX BOUNDS pp pp pp
0.0000000000000000e+00 1.0000000000000000e+01
0.0000000000000000e+00 1.0000000000000000e+01
0.0000000000000000e+00 1.0000000000000000e+01
ITEM: ATOMS id type x y z vx vy vz
6 2 6.08503 4.29917 4.17562 -20.8884 -27.3501 -3.0333
1 1 5.15738 4.79164 4.38083 -1.6554 -2.74599 2.18891
5 2 4.47248 4.84646 3.5103 -28.7847 3.05565 -29.9395
4 2 5.53113 5.12563 6.46767 2.81539 -7.42635 -9.17661
2 1 4.84439 5.20791 5.61792 4.07024 3.31963 2.01723
3 2 3.89277 5.73372 5.86315 18.0823 24.8852 -7.9713
ITEM: TIMESTEP
51900
ITEM: NUMBER OF ATOMS
6
ITEM: BOX BOUNDS pp pp pp
0.0000000000000000e+00 1.0000000000000000e+01
0.0000000000000000e+00 1.0000000000000000e+01
0.0000000000000000e+00 1.0000000000000000e+01
ITEM: ATOMS id type x y z vx vy vz
6 2 3.86008 3.81789 4.94272 -24.464 11.5932 18.6769
1 1 4.59317 4.6592 4.60224 -3.97285 1.32815 0.895
5 2 4.59939 4.75298 3.51094 1.5946 -9.31912 16.4381
4 2 5.39603 5.25221 6.48632 5.83629 9.43926 -9.98304
2 1 5.41372 5.34763 5.40194 3.5242 -0.744868 -1.64487
3 2 6.06485 6.09503 5.01208 22.3792 -18.6638 -16.1965
ITEM: TIMESTEP
52000
ITEM: NUMBER OF ATOMS
6
ITEM: BOX BOUNDS pp pp pp
0.0000000000000000e+00 1.0000000000000000e+01
0.0000000000000000e+00 1.0000000000000000e+01
0.0000000000000000e+00 1.0000000000000000e+01
ITEM: ATOMS id type x y z vx vy vz
1 1 4.33466 4.92565 4.98585 -3.16414 3.69882 2.74674
5 2 3.83699 3.9247 4.9922 4.63915 15.3875 30.1608
3 2 6.38978 4.25957 4.9895 -6.92061 -3.637 3.49172
6 2 3.68283 5.74751 5.03348 27.3354 -0.111476 -3.9028
4 2 6.16178 6.05421 5.00337 14.0685 11.9619 -31.1034
2 1 5.65955 5.07549 5.01275 -0.11902 -5.67941 -2.63314
ITEM: TIMESTEP
52100
ITEM: NUMBER OF ATOMS
6
ITEM: BOX BOUNDS pp pp pp
0.0000000000000000e+00 1.0000000000000000e+01
0.0000000000000000e+00 1.0000000000000000e+01
0.0000000000000000e+00 1.0000000000000000e+01
ITEM: ATOMS id type x y z vx vy vz
1 1 4.56854 5.41352 5.29124 4.7409 2.10595 -1.54695
5 2 4.63375 5.70144 6.30492 24.2067 29.2466 14.4642
3 2 6.37038 4.21937 5.2098 3.11109 4.80445 9.90525
6 2 3.65125 5.77036 4.79456 -5.17985 3.69599 9.26952
4 2 5.36209 4.27755 3.67106 -27.4098 -11.4869 20.299
2 1 5.4302 4.58907 4.71056 -4.29849 -4.30971 -2.97953
ITEM: TIMESTEP
52200
ITEM: NUMBER OF ATOMS
6
ITEM: BOX BOUNDS pp pp pp
0.0000000000000000e+00 1.0000000000000000e+01
0.0000000000000000e+00 1.0000000000000000e+01
0.0000000000000000e+00 1.0000000000000000e+01
ITEM: ATOMS id type x y z vx vy vz
1 1 5.03582 5.62957 5.17165 4.04158 0.111018 -4.13777
5 2 5.62509 6.40609 4.59417 -5.11474 -14.8217 -14.6168
3 2 5.41784 4.0001 3.95039 -33.2964 -3.27431 -4.40362
6 2 4.5859 6.09166 6.07584 23.4964 -2.91578 20.1344
4 2 4.36249 3.62673 5.42164 -3.12308 8.72705 13.1402
2 1 4.96511 4.35994 4.82497 -2.52784 0.91992 2.94156
ITEM: TIMESTEP
52300
ITEM: NUMBER OF ATOMS
6
ITEM: BOX BOUNDS pp pp pp
0.0000000000000000e+00 1.0000000000000000e+01
0.0000000000000000e+00 1.0000000000000000e+01
0.0000000000000000e+00 1.0000000000000000e+01
ITEM: ATOMS id type x y z vx vy vz
1 1 5.44971 5.43241 4.77492 1.72691 -4.79936 -3.18944
5 2 5.18008 6.34242 4.27494 -5.05081 -4.64025 2.02896
3 2 3.44573 4.63145 5.02597 4.9978 16.5683 24.2861
6 2 6.48906 5.28791 5.00656 -14.248 -23.856 -25.3764
4 2 4.7949 3.66651 5.72357 -0.466395 -14.0051 3.68105
2 1 4.55807 4.57357 5.22263 -0.487627 6.97566 2.80175
ITEM: TIMESTEP
52400
ITEM: NUMBER OF ATOMS
6
ITEM: BOX BOUNDS pp pp pp
0.0000000000000000e+00 1.0000000000000000e+01
0.0000000000000000e+00 1.0000000000000000e+01
0.0000000000000000e+00 1.0000000000000000e+01
ITEM: ATOMS id type x y z vx vy vz
1 1 5.34084 5.01317 4.43786 -6.17314 -2.22129 2.62355
5 2 6.2599 5.60555 4.33556 20.0518 -24.8715 -6.91696
3 2 4.95701 5.58301 6.41798 32.1093 14.8867 5.02058
6 2 5.05915 4.42925 3.54992 -16.003 -5.19975 -16.0328
4 2 3.72311 4.39931 5.68632 10.966 35.6929 -9.24319
2 1 4.65944 4.98536 5.56315 2.21847 0.50023 -0.343242
ITEM: TIMESTEP
52500
ITEM: NUMBER OF ATOMS
6
ITEM: BOX BOUNDS pp pp pp
0.0000000000000000e+00 1.0000000000000000e+01
0.0000000000000000e+00 1.0000000000000000e+01
0.0000000000000000e+00 1.0000000000000000e+01
ITEM: ATOMS id type x y z vx vy vz
1 1 4.88049 4.65115 4.4586 -5.38963 0.0360148 3.20469
5 2 5.13839 3.57781 4.3657 -28.6504 2.89759 14.8287
3 2 5.48931 4.87728 6.43059 -5.85636 15.3822 -13.5922
6 2 4.49754 5.09647 3.51309 8.28994 0.0507423 18.3601
4 2 4.83298 6.4127 5.59779 20.8616 27.1656 -11.1446
2 1 5.12322 5.35181 5.54934 5.83905 -3.85406 -3.91398
ITEM: TIMESTEP
52600
ITEM: NUMBER OF ATOMS
6
ITEM: BOX BOUNDS pp pp pp
0.0000000000000000e+00 1.0000000000000000e+01
0.0000000000000000e+00 1.0000000000000000e+01
0.0000000000000000e+00 1.0000000000000000e+01
ITEM: ATOMS id type x y z vx vy vz
1 1 4.41845 4.76109 4.77461 -1.12352 5.69705 4.19221
5 2 3.51661 4.92732 5.30489 12.7739 18.8969 4.91561
3 2 5.64086 5.86197 6.17378 6.78358 23.3149 -7.16702
6 2 4.42594 4.16454 3.901 -7.09541 -21.8813 11.9445
4 2 6.49543 5.0905 4.70072 -3.79831 -16.7419 1.8866
2 1 5.57514 5.23515 5.2188 0.396458 -5.99821 -5.16399
ITEM: TIMESTEP
52700
ITEM: NUMBER OF ATOMS
6
ITEM: BOX BOUNDS pp pp pp
0.0000000000000000e+00 1.0000000000000000e+01
0.0000000000000000e+00 1.0000000000000000e+01
0.0000000000000000e+00 1.0000000000000000e+01
ITEM: ATOMS id type x y z vx vy vz
1 1 4.38543 5.14804 5.19863 6.03273 3.52281 2.32044
5 2 3.79797 5.9158 4.62618 -17.9841 15.8131 -10.0617
3 2 6.08483 5.41598 4.03001 -18.7334 -23.1983 -14.9071
6 2 3.87438 4.58984 5.99555 6.07571 20.5392 19.079
4 2 6.23265 4.0724 5.35116 -11.2956 7.86632 -3.3326
2 1 5.61563 4.85243 4.80128 -2.51333 -5.28684 -1.5465
ITEM: TIMESTEP
52800
ITEM: NUMBER OF ATOMS
6
ITEM: BOX BOUNDS pp pp pp
0.0000000000000000e+00 1.0000000000000000e+01
0.0000000000000000e+00 1.0000000000000000e+01
0.0000000000000000e+00 1.0000000000000000e+01
ITEM: ATOMS id type x y z vx vy vz
1 1 4.78893 5.57064 5.26163 3.88482 3.4834 -2.87721
5 2 3.7264 5.79027 5.35521 29.9334 -4.32145 17.5326
3 2 4.50496 3.69484 4.34435 -0.111544 2.14018 19.536
6 2 5.5202 6.33672 5.67232 7.22514 -1.4243 -16.2865
4 2 6.2479 4.26384 4.67975 6.57736 -0.873289 -24.4582
2 1 5.21132 4.42214 4.73419 -7.54578 -3.10753 3.18571
ITEM: TIMESTEP
52900
ITEM: NUMBER OF ATOMS
6
ITEM: BOX BOUNDS pp pp pp
0.0000000000000000e+00 1.0000000000000000e+01
0.0000000000000000e+00 1.0000000000000000e+01
0.0000000000000000e+00 1.0000000000000000e+01
ITEM: ATOMS id type x y z vx vy vz
1 1 5.29644 5.6013 5.01943 4.06822 -0.742266 -4.73712
5 2 5.7229 5.97235 5.96408 21.7063 -13.2833 -11.8965
3 2 4.74411 3.73569 5.86035 4.69281 -18.532 20.6028
6 2 5.24094 6.22102 4.19939 -0.24247 -1.09191 -0.0917453
4 2 4.26521 4.0085 4.04196 -28.3459 2.77161 13.8631
2 1 4.70602 4.40391 4.9752 -3.8845 3.27125 2.85079
ITEM: TIMESTEP
53000
ITEM: NUMBER OF ATOMS
6
ITEM: BOX BOUNDS pp pp pp
0.0000000000000000e+00 1.0000000000000000e+01
0.0000000000000000e+00 1.0000000000000000e+01
0.0000000000000000e+00 1.0000000000000000e+01
ITEM: ATOMS id type x y z vx vy vz
5 2 6.12606 4.55025 4.07513 9.89666 -22.0213 -28.77
1 1 5.45837 5.22593 4.56887 -2.78883 -3.31182 -4.93046
6 2 5.5282 6.33668 4.38254 16.5323 -3.23064 2.92207
3 2 4.44873 3.68571 5.59725 -16.5792 22.4158 -11.0151
2 1 4.54683 4.77179 5.42965 0.503172 2.7937 7.34316
4 2 3.83751 5.45401 5.96454 17.3863 9.01011 8.11302
ITEM: TIMESTEP
53100
ITEM: NUMBER OF ATOMS
6
ITEM: BOX BOUNDS pp pp pp
0.0000000000000000e+00 1.0000000000000000e+01
0.0000000000000000e+00 1.0000000000000000e+01
0.0000000000000000e+00 1.0000000000000000e+01
ITEM: ATOMS id type x y z vx vy vz
5 2 4.4613 4.83093 3.51663 10.4356 4.34029 15.6453
1 1 5.17039 4.79477 4.39402 -6.49321 -3.99294 -4.04542
6 2 6.20672 4.4997 4.15175 5.01879 -31.222 -9.15325
3 2 3.82119 5.49826 5.82781 9.81701 27.4865 1.99253
2 1 4.8273 5.20909 5.61596 4.15172 4.54928 3.20551
4 2 5.5407 5.12467 6.3867 2.62997 -7.23425 1.52376
ITEM: TIMESTEP
53200
ITEM: NUMBER OF ATOMS
6
ITEM: BOX BOUNDS pp pp pp
0.0000000000000000e+00 1.0000000000000000e+01
0.0000000000000000e+00 1.0000000000000000e+01
0.0000000000000000e+00 1.0000000000000000e+01
ITEM: ATOMS id type x y z vx vy vz
5 2 4.58563 4.90091 3.52288 9.13131 -7.7118 -16.1806
1 1 4.61319 4.63998 4.59089 -10.7454 -1.98442 2.46159
6 2 4.04026 3.80483 4.92731 1.05927 30.9031 7.49197
3 2 5.98217 6.21381 5.04363 24.2251 1.25969 -7.32786
2 1 5.38246 5.3545 5.41017 7.56703 -1.67765 -2.36558
4 2 5.44621 5.14582 6.49537 3.45828 19.1864 14.8725
ITEM: TIMESTEP
53300
ITEM: NUMBER OF ATOMS
6
ITEM: BOX BOUNDS pp pp pp
0.0000000000000000e+00 1.0000000000000000e+01
0.0000000000000000e+00 1.0000000000000000e+01
0.0000000000000000e+00 1.0000000000000000e+01
ITEM: ATOMS id type x y z vx vy vz
5 2 3.93135 3.9612 4.76831 -19.8706 6.47501 26.4805
1 1 4.33931 4.90413 4.98453 -3.05992 2.31498 4.06727
6 2 3.63862 5.77995 5.07565 -11.3525 18.7626 -8.0492
3 2 6.38895 4.2825 4.96469 -8.36782 -8.26819 7.21513
2 1 5.65519 5.08785 5.01275 6.73993 -2.66269 -3.88278
4 2 6.10915 6.07145 5.22558 -4.26028 -12.8261 -27.8448
ITEM: TIMESTEP
53400
ITEM: NUMBER OF ATOMS
6
ITEM: BOX BOUNDS pp pp pp
0.0000000000000000e+00 1.0000000000000000e+01
0.0000000000000000e+00 1.0000000000000000e+01
0.0000000000000000e+00 1.0000000000000000e+01
ITEM: ATOMS id type x y z vx vy vz
5 2 4.52074 5.64414 6.39334 16.1169 12.446 -5.98348
1 1 4.54833 5.3823 5.2856 3.11778 9.07939 1.62307
6 2 3.72783 5.8302 4.77823 -16.0379 -6.16917 13.4523
3 2 6.249 4.1877 5.28616 4.76528 5.62538 -7.06654
2 1 5.459 4.61255 4.70586 -2.36107 -8.56239 -0.24441
4 2 5.41763 4.39888 3.64593 -13.8613 -18.0628 -16.8305
ITEM: TIMESTEP
53500
ITEM: NUMBER OF ATOMS
6
ITEM: BOX BOUNDS pp pp pp
0.0000000000000000e+00 1.0000000000000000e+01
0.0000000000000000e+00 1.0000000000000000e+01
0.0000000000000000e+00 1.0000000000000000e+01
ITEM: ATOMS id type x y z vx vy vz
5 2 5.61501 6.35548 4.65434 3.42127 6.21799 -27.9389
1 1 5.03536 5.63762 5.18627 4.51596 4.13412 -0.0533095
6 2 4.38871 6.05109 5.97658 27.7943 -9.22207 1.68222
3 2 5.62906 3.93033 3.99737 -21.9497 -15.9266 -10.7148
2 1 4.96443 4.3682 4.81971 -6.2012 -2.56147 2.54533
4 2 4.37221 3.59331 5.30233 10.8156 0.190793 7.27634
ITEM: TIMESTEP
53600
ITEM: NUMBER OF ATOMS
6
ITEM: BOX BOUNDS pp pp pp
0.0000000000000000e+00 1.0000000000000000e+01
0.0000000000000000e+00 1.0000000000000000e+01
0.0000000000000000e+00 1.0000000000000000e+01
ITEM: ATOMS id type x y z vx vy vz
5 2 5.18531 6.31225 4.17871 12.5565 3.36473 12.2138
1 1 5.44629 5.45379 4.80745 0.685335 -3.9643 -7.78444
6 2 6.51865 5.39437 5.0924 23.8219 -7.0109 -15.6771
3 2 3.53238 4.54678 4.95133 3.78568 18.461 12.7732
2 1 4.54912 4.55173 5.18845 -4.10063 2.43764 8.40066
4 2 4.82091 3.68045 5.82824 0.532777 3.37698 -16.6529
ITEM: TIMESTEP
53700
ITEM: NUMBER OF ATOMS
6
ITEM: BOX BOUNDS pp pp pp
0.0000000000000000e+00 1.0000000000000000e+01
0.0000000000000000e+00 1.0000000000000000e+01
0.0000000000000000e+00 1.0000000000000000e+01
ITEM: ATOMS id type x y z vx vy vz
5 2 6.17975 5.75233 4.25506 7.80919 -23.5383 -0.00242791
1 1 5.3603 5.01703 4.44529 -3.02143 -5.18571 -3.45412
6 2 5.17852 4.43477 3.5487 -14.2951 14.6567 3.94742
3 2 4.87056 5.62073 6.42981 18.7962 -5.96604 2.96892
2 1 4.63227 4.97714 5.55914 4.74066 6.62924 1.98014
4 2 3.86222 4.26119 5.71541 -32.7967 -2.35368 10.6501
ITEM: TIMESTEP
53800
ITEM: NUMBER OF ATOMS
6
ITEM: BOX BOUNDS pp pp pp
0.0000000000000000e+00 1.0000000000000000e+01
0.0000000000000000e+00 1.0000000000000000e+01
0.0000000000000000e+00 1.0000000000000000e+01
ITEM: ATOMS id type x y z vx vy vz
5 2 5.24018 3.64232 4.30958 -17.3072 -12.0214 6.24839
1 1 4.91706 4.64805 4.43325 -7.7388 -2.61447 2.90679
6 2 4.42535 5.07929 3.57019 7.60314 10.5069 2.667
3 2 5.59573 4.93016 6.47481 -1.08332 -5.83328 24.8696
2 1 5.08342 5.34642 5.56074 6.60365 4.17291 -5.27442
4 2 4.73549 6.41373 5.7189 24.3139 -11.2227 -5.57215
ITEM: TIMESTEP
53900
ITEM: NUMBER OF ATOMS
6
ITEM: BOX BOUNDS pp pp pp
0.0000000000000000e+00 1.0000000000000000e+01
0.0000000000000000e+00 1.0000000000000000e+01
0.0000000000000000e+00 1.0000000000000000e+01
ITEM: ATOMS id type x y z vx vy vz
5 2 3.47656 4.81114 5.30246 -7.0936 21.558 2.5928
1 1 4.43148 4.73433 4.76339 -1.39104 3.67177 5.14719
6 2 4.36688 4.27799 3.74951 -11.7301 -17.0623 2.86153
3 2 5.68218 5.69584 6.22641 -4.86051 -2.59375 -46.5986
2 1 5.5642 5.26852 5.23887 2.92825 -1.62447 -1.32842
4 2 6.52825 5.18061 4.6965 5.36667 -26.2977 -4.36051
ITEM: TIMESTEP
54000
ITEM: NUMBER OF ATOMS
6
ITEM: BOX BOUNDS pp pp pp
0.0000000000000000e+00 1.0000000000000000e+01
0.0000000000000000e+00 1.0000000000000000e+01
0.0000000000000000e+00 1.0000000000000000e+01
ITEM: ATOMS id type x y z vx vy vz
2 1 5.64284 4.87261 4.82782 -4.08297 -6.69039 -4.27227
5 2 3.78939 5.9668 4.73866 8.52137 -14.7322 -7.87199
3 2 6.15059 5.50443 4.09068 3.26028 -3.37632 -27.1434
6 2 3.79722 4.54205 5.90021 6.49576 16.9226 9.82927
4 2 6.18042 4.09284 5.22785 -7.91799 7.13001 12.8757
1 1 4.36428 5.11845 5.1759 3.21361 6.19157 5.30536
ITEM: TIMESTEP
54100
ITEM: NUMBER OF ATOMS
6
ITEM: BOX BOUNDS pp pp pp
0.0000000000000000e+00 1.0000000000000000e+01
0.0000000000000000e+00 1.0000000000000000e+01
0.0000000000000000e+00 1.0000000000000000e+01
ITEM: ATOMS id type x y z vx vy vz
2 1 5.23116 4.44131 4.71239 -6.21126 0.101396 2.30406
5 2 3.72679 5.86205 5.22575 -9.33 0.486546 8.12979
3 2 4.58535 3.70635 4.2577 -21.5743 -16.5392 16.2664
6 2 5.43971 6.27297 5.74357 14.0297 -8.1594 -29.0093
4 2 6.34467 4.12984 4.79885 11.6901 -3.192 -13.4282
1 1 4.76095 5.56107 5.28559 6.64634 2.19835 -0.790023
ITEM: TIMESTEP
54200
ITEM: NUMBER OF ATOMS
6
ITEM: BOX BOUNDS pp pp pp
0.0000000000000000e+00 1.0000000000000000e+01
0.0000000000000000e+00 1.0000000000000000e+01
0.0000000000000000e+00 1.0000000000000000e+01
ITEM: ATOMS id type x y z vx vy vz
2 1 4.73811 4.38781 4.95401 -7.10391 1.45125 4.29916
5 2 5.61193 6.0072 5.98444 13.5418 -11.4715 -13.0703
3 2 4.61847 3.70945 5.8752 21.6745 20.2173 -7.66813
6 2 5.35985 6.25734 4.13181 -11.513 7.85349 -17.0674
4 2 4.37214 3.96406 4.02835 -14.2249 12.7429 15.2947
1 1 5.26525 5.61735 5.04448 6.30848 -3.91365 -2.41001
ITEM: TIMESTEP
54300
ITEM: NUMBER OF ATOMS
6
ITEM: BOX BOUNDS pp pp pp
0.0000000000000000e+00 1.0000000000000000e+01
0.0000000000000000e+00 1.0000000000000000e+01
0.0000000000000000e+00 1.0000000000000000e+01
ITEM: ATOMS id type x y z vx vy vz
2 1 4.52533 4.74486 5.40641 -0.170194 5.45785 4.01683
5 2 6.24979 4.59525 4.1069 -17.1397 -16.409 -16.4426
3 2 4.55701 3.74046 5.66787 -3.20556 -6.47483 -4.98364
6 2 5.47081 6.26538 4.27632 3.59023 -5.04477 7.44879
4 2 3.79182 5.3847 5.86634 30.7169 16.6228 6.34044
1 1 5.46905 5.25629 4.60068 -1.00148 -4.50906 -3.37593
ITEM: TIMESTEP
54400
ITEM: NUMBER OF ATOMS
6
ITEM: BOX BOUNDS pp pp pp
0.0000000000000000e+00 1.0000000000000000e+01
0.0000000000000000e+00 1.0000000000000000e+01
0.0000000000000000e+00 1.0000000000000000e+01
ITEM: ATOMS id type x y z vx vy vz
2 1 4.80497 5.17266 5.61176 4.14477 5.82832 -2.16024
5 2 4.4935 4.72624 3.5913 -25.02 18.1119 1.52145
3 2 3.74407 5.40525 5.86994 0.594129 18.433 0.267826
6 2 6.2732 4.60542 4.15967 -14.95 -14.0143 13.16
4 2 5.56167 5.26872 6.4139 24.8035 -15.1443 19.035
1 1 5.18916 4.82683 4.38547 -2.92185 -6.44818 -0.691724
ITEM: TIMESTEP
54500
ITEM: NUMBER OF ATOMS
6
ITEM: BOX BOUNDS pp pp pp
0.0000000000000000e+00 1.0000000000000000e+01
0.0000000000000000e+00 1.0000000000000000e+01
0.0000000000000000e+00 1.0000000000000000e+01
ITEM: ATOMS id type x y z vx vy vz
2 1 5.34666 5.36663 5.42364 6.10583 0.734826 -0.997644
5 2 4.51128 5.00337 3.54562 7.51932 -7.75 21.4981
3 2 5.88938 6.27455 5.11064 15.5922 -20.2565 -20.9743
6 2 4.12731 3.74179 4.89429 -31.9649 -2.17422 20.3456
4 2 5.52202 5.06923 6.4828 -8.75532 3.05119 -24.9798
1 1 4.64935 4.62587 4.57371 -4.62811 1.54189 1.34258
ITEM: TIMESTEP
54600
ITEM: NUMBER OF ATOMS
6
ITEM: BOX BOUNDS pp pp pp
0.0000000000000000e+00 1.0000000000000000e+01
0.0000000000000000e+00 1.0000000000000000e+01
0.0000000000000000e+00 1.0000000000000000e+01
ITEM: ATOMS id type x y z vx vy vz
2 1 5.65514 5.10727 5.04952 2.77173 -4.89348 -6.49916
5 2 3.8992 3.92532 4.67185 -16.4141 -16.2382 13.2576
3 2 6.32487 4.31291 4.82261 -13.0543 -13.834 12.4214
6 2 3.64328 5.66994 5.20262 20.4434 5.30058 -19.2272
4 2 6.0254 6.06157 5.32716 0.682851 15.3817 -12.9164
1 1 4.35407 4.89523 4.94859 -2.07166 5.68149 7.04167
ITEM: TIMESTEP
54700
ITEM: NUMBER OF ATOMS
6
ITEM: BOX BOUNDS pp pp pp
0.0000000000000000e+00 1.0000000000000000e+01
0.0000000000000000e+00 1.0000000000000000e+01
0.0000000000000000e+00 1.0000000000000000e+01
ITEM: ATOMS id type x y z vx vy vz
2 1 5.47507 4.65172 4.7133 -4.83299 -3.53608 -3.71848
5 2 4.49198 5.50169 6.34528 31.106 15.6801 -10.2796
3 2 6.22949 4.07813 5.32631 11.464 -8.7759 8.51561
6 2 3.75972 5.89347 4.66211 -3.11985 0.71369 -10.661
4 2 5.50431 4.49371 3.61328 -12.7193 -25.9487 3.66346
1 1 4.52635 5.35101 5.2913 2.58973 5.07441 4.45375
ITEM: TIMESTEP
54800
ITEM: NUMBER OF ATOMS
6
ITEM: BOX BOUNDS pp pp pp
0.0000000000000000e+00 1.0000000000000000e+01
0.0000000000000000e+00 1.0000000000000000e+01
0.0000000000000000e+00 1.0000000000000000e+01
ITEM: ATOMS id type x y z vx vy vz
2 1 5.00439 4.37327 4.81502 -4.60303 -3.23839 -1.12202
5 2 5.77801 6.31221 4.75571 -9.05237 2.53304 -20.3532
3 2 5.68731 3.98151 4.08366 -34.6155 7.85921 11.8702
6 2 4.31432 5.99746 5.90986 15.911 9.08989 7.66432
4 2 4.2648 3.64115 5.20281 4.66259 7.1575 24.5546
1 1 4.99208 5.63237 5.18916 6.54111 1.00278 -0.869894
ITEM: TIMESTEP
54900
ITEM: NUMBER OF ATOMS
6
ITEM: BOX BOUNDS pp pp pp
0.0000000000000000e+00 1.0000000000000000e+01
0.0000000000000000e+00 1.0000000000000000e+01
0.0000000000000000e+00 1.0000000000000000e+01