LAMMPS data file via write_data, version 2 Aug 2023, timestep = 69560, units = metal

6 atoms
2 atom types

0 10 xlo xhi
0 10 ylo yhi
0 10 zlo zhi

Masses

1 12.0107
2 1.00794

Atoms # atomic

5 2 3.861732500482338 4.07523784910358 5.494463322610039 0 0 0
2 1 5.584886551298895 5.2484840051418855 5.1657986123902075 0 0 0
3 2 6.094149663426834 4.951634761265917 6.154565516833204 0 0 0
6 2 3.980886571554613 5.028722774597578 3.887160717913032 0 0 0
1 1 4.409012472925723 4.7528151340198646 4.828535937913508 0 0 0
4 2 6.138384434019655 5.928506345204 4.533161383758765 0 0 0

Velocities

5 -7.00075750552846 26.872654983592106 18.934991796961
2 1.2994210012332421 -0.9331457209519648 -5.5366704661306
3 15.132433053272853 -7.863007622700716 22.19442311725975
6 -1.23719278186621 -0.8692709959816445 9.081333273163201
1 -3.3052550280695345 1.6053295147105058 2.9733003025650326
4 17.007208551186277 -26.150176443972498 -19.665408163637075
