LAMMPS data file via write_data, version 2 Aug 2023, timestep = 69555, units = metal

6 atoms
2 atom types

0 10 xlo xhi
0 10 ylo yhi
0 10 zlo zhi

Masses

1 12.0107
2 1.00794

Atoms # atomic

2 1 5.2327159052022605 5.382460343692603 5.493975225190236 0 0 0
6 2 4.360519585018248 5.080972272599008 3.6383194882849317 0 0 0
4 2 5.262481034670155 6.429925175016383 5.4822273233198775 0 0 0
5 2 4.72563167814399 3.560735577646531 4.5648094305799205 0 0 0
3 2 5.617630528349656 4.948270671508772 6.40229185359988 0 0 0
1 1 4.770315166889316 4.615835545884117 4.498817818491664 0 0 0

Velocities

2 4.356215526132237 1.5651323439489684 0.38114090381988697
6 -5.623329958563215 -5.6076196075995 -10.312313431856523
4 31.3954815454633 -5.283160651127906 -5.9124741923675534
5 -28.683364515476462 -3.4486969749837275 9.951395891815592
3 0.053166663436965966 10.907681393469899 -12.031743190521624
1 -4.116367794319306 -1.2771354495788902 1.1550291523984115
