LAMMPS data file via write_data, version 2 Aug 2023, timestep = 69565, units = metal

6 atoms
2 atom types

0 10 xlo xhi
0 10 ylo yhi
0 10 zlo zhi

Masses

1 12.0107
2 1.00794

Atoms # atomic

5 2 5.324011249804982 5.932495277143921 3.8039636462217508 0 0 0
1 1 5.455468303464332 5.432276912884504 4.773456310960952 0 0 0
6 2 6.306316750382225 5.69200713405196 5.402663189928869 0 0 0
3 2 3.686458951856853 4.294385310314581 4.6083078312661225 0 0 0
2 1 4.548307131218648 4.571210694850405 5.222870685493965 0 0 0
4 2 4.640678058345898 4.039136028297285 6.230674113457418 0 0 0

Velocities

5 3.065681224318878 9.667670817720913 -15.562987141791117
1 1.3106572442713202 -3.077505269892147 -3.4939568682015345
6 22.591472245207363 -16.705512037703656 -16.53644899665347
3 -27.796338973007412 17.200781087248398 14.796659594963812
2 -1.1385627332985544 0.9068146936303927 6.8111754053761455
4 0.08849246328009475 15.703196315751134 -22.22548573844682
