ITEM: TIMESTEP
90000
ITEM: NUMBER OF ATOMS
6
ITEM: BOX BOUNDS pp pp pp
0.0000000000000000e+00 1.0000000000000000e+01
0.0000000000000000e+00 1.0000000000000000e+01
0.0000000000000000e+00 1.0000000000000000e+01
ITEM: ATOMS id type x y z vx vy vz
6 2 3.8162 4.57032 4.22562 -11.3532 -13.0502 5.80004
2 1 5.63015 5.09664 4.91505 5.95936 -6.94953 -7.16735
4 2 6.10955 5.13489 3.86712 4.25819 -11.4738 -34.5341
5 2 3.8559 4.95054 6.0803 -44.0466 65.2965 20.1795
1 1 4.35614 4.90794 5.10507 -2.81422 5.14748 9.82404
3 2 6.38411 5.28929 5.589 13.6638 -19.2991 -23.1028
ITEM: TIMESTEP
90100
ITEM: NUMBER OF ATOMS
6
ITEM: BOX BOUNDS pp pp pp
0.0000000000000000e+00 1.0000000000000000e+01
0.0000000000000000e+00 1.0000000000000000e+01
0.0000000000000000e+00 1.0000000000000000e+01
ITEM: ATOMS id type x y z vx vy vz
6 2 4.88311 5.64677 6.49021 49.2197 53.9089 4.70086
2 1 5.05501 4.43635 4.66336 -8.17129 -5.85918 2.5328
4 2 4.95595 3.50609 5.12454 -33.7615 -5.34514 -11.4361
5 2 5.18753 6.57946 4.85955 -14.5745 -8.19532 -7.82281
1 1 4.90775 5.54961 5.33385 10.0818 3.16276 -0.0336843
3 2 5.41965 4.43458 3.56076 -23.65 -8.23754 -15.2217
ITEM: TIMESTEP
90200
ITEM: NUMBER OF ATOMS
6
ITEM: BOX BOUNDS pp pp pp
0.0000000000000000e+00 1.0000000000000000e+01
0.0000000000000000e+00 1.0000000000000000e+01
0.0000000000000000e+00 1.0000000000000000e+01
ITEM: ATOMS id type x y z vx vy vz
6 2 6.3901 4.43521 4.43631 -72.0427 -2.48829 -28.4414
2 1 4.4677 4.85751 5.38395 1.26197 7.01179 8.55929
4 2 4.39613 3.93582 6.07844 -21.221 18.087 12.7208
5 2 5.64831 6.10849 4.18209 25.215 -17.0367 -15.8907
1 1 5.52746 5.14672 4.62155 5.04547 -7.07358 -8.41975
3 2 3.62545 5.46969 5.23939 -7.11127 2.17422 29.9486
ITEM: TIMESTEP
90300
ITEM: NUMBER OF ATOMS
6
ITEM: BOX BOUNDS pp pp pp
0.0000000000000000e+00 1.0000000000000000e+01
0.0000000000000000e+00 1.0000000000000000e+01
0.0000000000000000e+00 1.0000000000000000e+01
ITEM: ATOMS id type x y z vx vy vz
6 2 3.81083 4.57843 4.26444 -10.3051 30.5705 -16.1502
2 1 5.21534 5.41452 5.4757 8.49593 -1.05134 -0.753665
4 2 4.47478 5.99491 5.98318 29.1115 61.3148 -6.69469
5 2 5.46273 3.82627 4.15739 -51.9903 -0.905489 5.64285
1 1 4.78523 4.58011 4.5037 -6.07874 -7.30312 4.16527
3 2 6.24725 5.66392 5.84221 4.38043 8.57264 -23.4509
ITEM: TIMESTEP
90400
ITEM: NUMBER OF ATOMS
6
ITEM: BOX BOUNDS pp pp pp
0.0000000000000000e+00 1.0000000000000000e+01
0.0000000000000000e+00 1.0000000000000000e+01
0.0000000000000000e+00 1.0000000000000000e+01
ITEM: ATOMS id type x y z vx vy vz
6 2 3.48146 5.51808 4.81296 -19.2856 20.4565 43.8813
2 1 5.58791 4.87528 4.69178 -1.56666 -8.69743 -4.79426
4 2 5.93295 5.37231 3.73286 -20.5409 -42.9648 -13.8436
5 2 4.29376 4.96971 6.31418 8.36266 25.1908 55.7579
1 1 4.40244 5.09888 5.29707 2.32649 9.59799 -2.90076
3 2 6.40927 4.44745 5.27463 22.4096 -13.4136 5.89891
ITEM: TIMESTEP
90500
ITEM: NUMBER OF ATOMS
6
ITEM: BOX BOUNDS pp pp pp
0.0000000000000000e+00 1.0000000000000000e+01
0.0000000000000000e+00 1.0000000000000000e+01
0.0000000000000000e+00 1.0000000000000000e+01
ITEM: ATOMS id type x y z vx vy vz
6 2 4.79971 6.19958 5.97859 8.91272 26.0912 23.066
2 1 4.79573 4.36833 4.8613 -2.86883 -1.49461 5.27435
4 2 3.85376 3.94434 5.22269 -21.9314 -2.25942 14.4327
5 2 5.96604 6.31538 4.61396 7.33105 20.465 -29.9546
1 1 5.21577 5.60563 5.15794 9.94546 -2.98181 -6.66109
3 2 5.24581 3.85061 3.95734 -78.6381 9.04449 8.98047
ITEM: TIMESTEP
90600
ITEM: NUMBER OF ATOMS
6
ITEM: BOX BOUNDS pp pp pp
0.0000000000000000e+00 1.0000000000000000e+01
0.0000000000000000e+00 1.0000000000000000e+01
0.0000000000000000e+00 1.0000000000000000e+01
ITEM: ATOMS id type x y z vx vy vz
6 2 6.39682 4.23417 4.66006 -16.9633 9.00516 -11.0778
2 1 4.55675 5.11144 5.48274 8.52529 2.00305 3.77876
4 2 4.62996 4.58069 6.4652 -25.7027 41.4398 -24.6789
5 2 5.38317 5.36384 3.50931 -9.41842 -15.0245 0.625938
1 1 5.44624 4.9102 4.507 -5.22436 -10.3911 -4.6379
3 2 3.55681 5.56304 5.48944 12.7502 64.5317 45.3684
ITEM: TIMESTEP
90700
ITEM: NUMBER OF ATOMS
6
ITEM: BOX BOUNDS pp pp pp
0.0000000000000000e+00 1.0000000000000000e+01
0.0000000000000000e+00 1.0000000000000000e+01
0.0000000000000000e+00 1.0000000000000000e+01
ITEM: ATOMS id type x y z vx vy vz
6 2 3.57889 4.41234 5.14581 -2.05639 -2.96741 -7.94533
2 1 5.48778 5.37048 5.29602 9.3165 -7.07674 -8.50791
4 2 5.44313 5.96073 6.19115 3.91925 46.5038 -5.97929
5 2 4.60367 4.35821 3.6816 -39.5148 -26.6357 32.5562
1 1 4.51746 4.58672 4.72834 -5.55394 9.41364 6.06439
3 2 6.31418 5.77827 4.69287 -7.18306 -44.7475 10.4855
ITEM: TIMESTEP
90800
ITEM: NUMBER OF ATOMS
6
ITEM: BOX BOUNDS pp pp pp
0.0000000000000000e+00 1.0000000000000000e+01
0.0000000000000000e+00 1.0000000000000000e+01
0.0000000000000000e+00 1.0000000000000000e+01
ITEM: ATOMS id type x y z vx vy vz
6 2 3.97274 6.22389 5.16272 1.55007 12.7519 -7.13082
2 1 5.47421 4.67663 4.5925 -7.23809 -0.65434 -3.97374
4 2 5.76461 5.12844 3.62651 -52.9438 -55.1907 -4.94701
5 2 4.05589 4.8503 6.27711 -35.9827 17.2835 31.9393
1 1 4.54842 5.32553 5.40648 13.8007 5.84734 1.96365
3 2 5.93941 3.7712 4.94758 9.17556 -36.725 4.09098
ITEM: TIMESTEP
90900
ITEM: NUMBER OF ATOMS
6
ITEM: BOX BOUNDS pp pp pp
0.0000000000000000e+00 1.0000000000000000e+01
0.0000000000000000e+00 1.0000000000000000e+01
0.0000000000000000e+00 1.0000000000000000e+01
ITEM: ATOMS id type x y z vx vy vz
6 2 5.06697 6.61906 4.92999 12.1343 14.0837 21.5009
2 1 4.55396 4.48251 5.05567 0.906718 0.633025 7.2121
4 2 3.4683 4.70826 5.1457 -35.0184 13.2652 54.6549
5 2 6.60627 5.33932 4.80129 -7.684 -39.5083 8.81463
1 1 5.45514 5.51054 4.96015 4.72982 -1.92852 -14.7984
3 2 4.75245 3.41572 4.93623 -36.5974 27.5966 5.42896
ITEM: TIMESTEP
91000
ITEM: NUMBER OF ATOMS
6
ITEM: BOX BOUNDS pp pp pp
0.0000000000000000e+00 1.0000000000000000e+01
0.0000000000000000e+00 1.0000000000000000e+01
0.0000000000000000e+00 1.0000000000000000e+01
ITEM: ATOMS id type x y z vx vy vz
5 2 4.67392 4.75655 3.48252 -10.535 1.46762 28.0913
6 2 6.34934 4.57701 4.28512 -60.1726 -25.9956 -9.15297
1 1 5.24539 4.70147 4.43045 -4.51643 -7.90469 -1.12575
2 1 4.75933 5.26133 5.57859 10.9521 7.75548 3.09776
3 2 3.75194 5.76686 5.55108 -10.5743 44.9923 -16.3467
4 2 5.17088 5.34243 6.57526 4.59413 -18.6864 -26.0904
ITEM: TIMESTEP
91100
ITEM: NUMBER OF ATOMS
6
ITEM: BOX BOUNDS pp pp pp
0.0000000000000000e+00 1.0000000000000000e+01
0.0000000000000000e+00 1.0000000000000000e+01
0.0000000000000000e+00 1.0000000000000000e+01
ITEM: ATOMS id type x y z vx vy vz
5 2 3.78431 4.76737 4.12536 -5.36929 -40.6629 20.6756
6 2 3.94081 4.16495 5.71529 25.9722 7.74992 14.5725
1 1 4.37181 4.73607 4.98009 -4.31881 16.192 5.7452
2 1 5.6159 5.27938 5.02245 2.94362 -7.80611 -10.3342
3 2 6.15744 5.64553 4.16556 -16.0395 -51.6125 -3.44564
4 2 6.2663 5.23763 5.96523 11.8234 -15.4014 22.8799
ITEM: TIMESTEP
91200
ITEM: NUMBER OF ATOMS
6
ITEM: BOX BOUNDS pp pp pp
0.0000000000000000e+00 1.0000000000000000e+01
0.0000000000000000e+00 1.0000000000000000e+01
0.0000000000000000e+00 1.0000000000000000e+01
ITEM: ATOMS id type x y z vx vy vz
5 2 3.91125 5.54558 6.09297 11.9988 -14.5013 50.2196
6 2 5.04772 6.51354 5.1643 21.7724 32.882 -29.3353
1 1 4.76487 5.49781 5.39297 12.5264 1.07156 -6.25285
2 1 5.24203 4.48897 4.62136 -13.0875 1.74147 1.4481
3 2 5.07658 3.35024 4.76563 -1.94365 -21.8759 21.3988
4 2 5.8847 4.74772 3.80809 -25.141 -30.0252 14.9707
ITEM: TIMESTEP
91300
ITEM: NUMBER OF ATOMS
6
ITEM: BOX BOUNDS pp pp pp
0.0000000000000000e+00 1.0000000000000000e+01
0.0000000000000000e+00 1.0000000000000000e+01
0.0000000000000000e+00 1.0000000000000000e+01
ITEM: ATOMS id type x y z vx vy vz
5 2 6.53515 4.98322 5.22835 0.308763 -29.089 -17.9573
6 2 5.53012 6.28143 4.1214 0.944566 -14.8934 5.43429
1 1 5.57361 5.30627 4.76012 -4.84276 -12.7587 -7.79696
2 1 4.43253 4.68369 5.20159 4.08633 13.5564 10.1836
3 2 4.53295 3.85721 5.8678 12.3571 25.8566 -26.2267
4 2 3.33105 4.99735 5.2405 -4.59677 8.62016 10.3102
ITEM: TIMESTEP
91400
ITEM: NUMBER OF ATOMS
6
ITEM: BOX BOUNDS pp pp pp
0.0000000000000000e+00 1.0000000000000000e+01
0.0000000000000000e+00 1.0000000000000000e+01
0.0000000000000000e+00 1.0000000000000000e+01
ITEM: ATOMS id type x y z vx vy vz
5 2 4.00732 4.09332 4.26875 17.5268 26.4334 -11.9222
6 2 5.73812 4.48833 3.69631 -1.96051 -46.4137 33.6484
1 1 4.97833 4.59484 4.42799 -13.0727 -1.01146 4.29921
2 1 5.03039 5.41388 5.5583 10.5766 5.81951 -2.49866
3 2 4.15783 5.53336 6.30438 8.50485 3.96871 5.7767
4 2 5.99525 5.78075 5.89575 5.6718 -41.2815 -48.9585
ITEM: TIMESTEP
91500
ITEM: NUMBER OF ATOMS
6
ITEM: BOX BOUNDS pp pp pp
0.0000000000000000e+00 1.0000000000000000e+01
0.0000000000000000e+00 1.0000000000000000e+01
0.0000000000000000e+00 1.0000000000000000e+01
ITEM: ATOMS id type x y z vx vy vz
5 2 3.49088 5.3498 4.72838 -8.98244 37.9146 -41.1456
6 2 4.13506 4.26143 6.00303 7.14862 36.8369 44.8626
1 1 4.3373 4.93033 5.16001 4.78503 5.26831 11.5598
2 1 5.6686 5.09001 4.82164 -2.9183 -10.8648 -12.872
3 2 5.96229 5.61053 3.96727 -7.54503 -5.27585 9.88872
4 2 6.34385 4.53542 5.52175 -12.8653 -2.78694 2.03125
ITEM: TIMESTEP
91600
ITEM: NUMBER OF ATOMS
6
ITEM: BOX BOUNDS pp pp pp
0.0000000000000000e+00 1.0000000000000000e+01
0.0000000000000000e+00 1.0000000000000000e+01
0.0000000000000000e+00 1.0000000000000000e+01
ITEM: ATOMS id type x y z vx vy vz
5 2 4.08877 5.9899 5.83022 0.106758 -14.9087 33.2886
6 2 5.99586 6.20271 5.16599 38.562 6.71474 -61.9743
1 1 5.06176 5.61405 5.26403 6.41892 -2.06206 -4.5002
2 1 4.95709 4.40274 4.71258 -6.29948 2.38117 4.27147
3 2 4.01115 3.84974 4.95003 -23.057 27.8078 28.392
4 2 5.68205 3.75717 4.33424 -17.0349 -23.4164 3.01934
ITEM: TIMESTEP
91700
ITEM: NUMBER OF ATOMS
6
ITEM: BOX BOUNDS pp pp pp
0.0000000000000000e+00 1.0000000000000000e+01
0.0000000000000000e+00 1.0000000000000000e+01
0.0000000000000000e+00 1.0000000000000000e+01
ITEM: ATOMS id type x y z vx vy vz
5 2 6.51966 4.74565 4.95531 -20.134 -40.6491 -33.0743
6 2 5.41927 5.44974 3.44553 -22.2657 10.1275 14.7005
1 1 5.53592 5.1184 4.62324 -5.86977 -12.1837 -3.91304
2 1 4.47273 4.90476 5.39655 5.80054 13.1184 5.65595
3 2 4.54446 4.41798 6.35887 13.6396 10.7359 21.7155
4 2 3.41598 5.11027 5.00626 29.5851 8.64777 -24.1105
ITEM: TIMESTEP
91800
ITEM: NUMBER OF ATOMS
6
ITEM: BOX BOUNDS pp pp pp
0.0000000000000000e+00 1.0000000000000000e+01
0.0000000000000000e+00 1.0000000000000000e+01
0.0000000000000000e+00 1.0000000000000000e+01
ITEM: ATOMS id type x y z vx vy vz
5 2 3.92054 3.78009 5.01545 -21.7681 64.235 33.8843
6 2 4.80601 4.59485 3.57642 -4.60339 -4.91746 55.7795
1 1 4.66552 4.55517 4.63991 -7.4359 -1.3734 2.25588
2 1 5.33125 5.45628 5.36872 8.53029 -2.58413 -3.79293
3 2 5.43791 5.27488 6.45746 -3.66107 -12.9594 -39.4165
4 2 5.8764 6.21337 4.84961 16.9917 0.800096 -31.9316
ITEM: TIMESTEP
91900
ITEM: NUMBER OF ATOMS
6
ITEM: BOX BOUNDS pp pp pp
0.0000000000000000e+00 1.0000000000000000e+01
0.0000000000000000e+00 1.0000000000000000e+01
0.0000000000000000e+00 1.0000000000000000e+01
ITEM: ATOMS id type x y z vx vy vz
5 2 4.1568 6.12362 5.13803 12.1874 -8.59736 -45.8
6 2 3.92126 4.51318 5.96366 26.4953 -7.07451 31.181
1 1 4.41148 5.13955 5.2921 5.29996 13.7488 7.20315
2 1 5.56683 4.85388 4.70707 -5.88615 -14.5524 -2.51019
3 2 6.18606 5.59221 4.22254 2.19195 15.4126 -29.4135
4 2 5.9967 3.84894 4.68751 -33.8897 9.83525 -11.8892
ITEM: TIMESTEP
92000
ITEM: NUMBER OF ATOMS
6
ITEM: BOX BOUNDS pp pp pp
0.0000000000000000e+00 1.0000000000000000e+01
0.0000000000000000e+00 1.0000000000000000e+01
0.0000000000000000e+00 1.0000000000000000e+01
ITEM: ATOMS id type x y z vx vy vz
2 1 4.64651 4.45673 4.89205 -13.7478 7.13224 3.71003
3 2 3.7513 4.42262 4.24929 -6.22528 14.2541 37.4896
5 2 4.96052 6.56851 4.84676 8.73396 29.4676 -29.0463
4 2 5.04901 3.50889 5.33112 39.0184 -6.34219 28.5612
6 2 6.41147 5.41725 5.41076 28.4224 -8.83006 -37.1506
1 1 5.33923 5.55018 5.1217 7.87758 -9.52811 -3.69776
ITEM: TIMESTEP
92100
ITEM: NUMBER OF ATOMS
6
ITEM: BOX BOUNDS pp pp pp
0.0000000000000000e+00 1.0000000000000000e+01
0.0000000000000000e+00 1.0000000000000000e+01
0.0000000000000000e+00 1.0000000000000000e+01
ITEM: ATOMS id type x y z vx vy vz
2 1 4.64131 5.09496 5.54487 1.49784 3.70194 1.87571
3 2 5.12264 5.82584 6.22857 50.7941 25.2837 -7.56997
5 2 6.48538 5.13043 4.35837 -29.7179 -15.6405 -0.634154
4 2 3.59829 4.72364 5.611 16.9039 52.5322 12.8094
6 2 4.84201 4.47693 3.57263 -21.1227 28.6835 -5.85601
1 1 5.35484 4.89185 4.47454 -2.91252 -11.3268 -1.77075
ITEM: TIMESTEP
92200
ITEM: NUMBER OF ATOMS
6
ITEM: BOX BOUNDS pp pp pp
0.0000000000000000e+00 1.0000000000000000e+01
0.0000000000000000e+00 1.0000000000000000e+01
0.0000000000000000e+00 1.0000000000000000e+01
ITEM: ATOMS id type x y z vx vy vz
2 1 5.49938 5.37265 5.14688 5.50518 -8.58013 -5.15562
3 2 6.26412 5.02495 5.84908 -10.1725 21.9549 -27.1711
5 2 4.39712 3.80895 5.45009 -9.53764 22.7367 -3.89007
4 2 5.58417 6.42788 4.79669 35.3959 -1.72521 -54.2074
6 2 3.69891 4.89139 4.15949 20.7549 26.5331 34.9622
1 1 4.5055 4.61447 4.83184 -8.56329 2.74772 9.37734
ITEM: TIMESTEP
92300
ITEM: NUMBER OF ATOMS
6
ITEM: BOX BOUNDS pp pp pp
0.0000000000000000e+00 1.0000000000000000e+01
0.0000000000000000e+00 1.0000000000000000e+01
0.0000000000000000e+00 1.0000000000000000e+01
ITEM: ATOMS id type x y z vx vy vz
2 1 5.32607 4.55584 4.65935 -8.3827 -5.58487 -0.392015
3 2 6.42478 4.56487 4.55942 6.58883 0.632968 -28.9517
5 2 5.11601 6.26164 5.9285 21.9034 28.9249 -12.6378
4 2 4.76388 4.04286 3.90782 -30.3729 -13.357 51.3246
6 2 3.66355 5.3769 5.22476 -33.9997 37.962 1.98294
1 1 4.67679 5.42346 5.37265 11.3938 1.03951 -0.591364
ITEM: TIMESTEP
92400
ITEM: NUMBER OF ATOMS
6
ITEM: BOX BOUNDS pp pp pp
0.0000000000000000e+00 1.0000000000000000e+01
0.0000000000000000e+00 1.0000000000000000e+01
0.0000000000000000e+00 1.0000000000000000e+01
ITEM: ATOMS id type x y z vx vy vz
2 1 4.51457 4.55075 5.06863 -0.343409 3.37826 9.01986
3 2 3.82562 4.4415 4.23802 -27.1494 70.1894 35.5451
5 2 5.61675 5.92541 3.99252 1.3189 0.386296 -33.5774
4 2 4.3946 4.04242 6.06364 -26.4295 -5.69158 16.575
6 2 6.29468 5.65819 5.75062 27.7953 13.1268 12.0982
1 1 5.47459 5.44355 4.92776 2.39649 -9.92495 -11.5912
ITEM: TIMESTEP
92500
ITEM: NUMBER OF ATOMS
6
ITEM: BOX BOUNDS pp pp pp
0.0000000000000000e+00 1.0000000000000000e+01
0.0000000000000000e+00 1.0000000000000000e+01
0.0000000000000000e+00 1.0000000000000000e+01
ITEM: ATOMS id type x y z vx vy vz
2 1 4.94205 5.36462 5.54595 7.23906 6.24671 -5.30775
3 2 4.86733 6.50387 5.46732 58.6128 7.4666 39.6676
5 2 5.26985 5.28681 3.47773 -13.5049 -18.8768 -6.41432
4 2 4.56513 4.93988 6.43947 7.34475 14.5433 2.68595
6 2 4.95535 3.52037 4.42357 -16.1667 15.0376 17.8196
1 1 5.08688 4.61429 4.4703 -10.2842 -7.7716 0.796299
ITEM: TIMESTEP
92600
ITEM: NUMBER OF ATOMS
6
ITEM: BOX BOUNDS pp pp pp
0.0000000000000000e+00 1.0000000000000000e+01
0.0000000000000000e+00 1.0000000000000000e+01
0.0000000000000000e+00 1.0000000000000000e+01
ITEM: ATOMS id type x y z vx vy vz
2 1 5.62996 5.19576 5.01228 3.31213 -4.76554 -4.7632
3 2 6.42761 4.55356 4.77384 17.1784 -17.5529 -6.63113
5 2 4.08527 3.76189 4.78016 -27.6712 63.2954 32.452
4 2 5.86137 6.29031 4.86541 8.35671 -29.7583 -57.4732
6 2 3.63852 5.63751 5.16888 -8.42808 -5.70411 6.35592
1 1 4.36917 4.78379 5.02242 -2.42559 3.90284 6.88608
ITEM: TIMESTEP
92700
ITEM: NUMBER OF ATOMS
6
ITEM: BOX BOUNDS pp pp pp
0.0000000000000000e+00 1.0000000000000000e+01
0.0000000000000000e+00 1.0000000000000000e+01
0.0000000000000000e+00 1.0000000000000000e+01
ITEM: ATOMS id type x y z vx vy vz
2 1 5.04578 4.44156 4.61425 -6.01958 -1.9165 1.50052
3 2 5.76556 3.67245 5.02119 -38.5778 1.34216 1.77974
5 2 5.37936 5.53053 6.33324 11.16 10.7668 13.4622
4 2 4.5054 4.37703 3.68916 -58.3498 -60.3878 6.85502
6 2 4.41686 6.40216 5.11393 19.5712 7.50874 34.6132
1 1 4.94878 5.5599 5.37268 11.5748 5.33793 -6.25965
ITEM: TIMESTEP
92800
ITEM: NUMBER OF ATOMS
6
ITEM: BOX BOUNDS pp pp pp
0.0000000000000000e+00 1.0000000000000000e+01
0.0000000000000000e+00 1.0000000000000000e+01
0.0000000000000000e+00 1.0000000000000000e+01
ITEM: ATOMS id type x y z vx vy vz
2 1 4.49432 4.75206 5.36318 1.1621 8.08128 5.54689
3 2 3.94185 3.96905 4.89901 -64.3447 -5.59609 34.4189
5 2 5.83079 4.63442 3.76304 -15.632 -28.673 -12.0675
4 2 3.9647 5.3102 6.19762 21.0082 -15.4099 5.58267
6 2 5.92884 6.28208 4.86986 53.0293 12.4345 8.47791
1 1 5.53389 5.23148 4.65966 -0.663679 -4.95572 -8.60259
ITEM: TIMESTEP
92900
ITEM: NUMBER OF ATOMS
6
ITEM: BOX BOUNDS pp pp pp
0.0000000000000000e+00 1.0000000000000000e+01
0.0000000000000000e+00 1.0000000000000000e+01
0.0000000000000000e+00 1.0000000000000000e+01
ITEM: ATOMS id type x y z vx vy vz
2 1 5.13683 5.44968 5.47809 10.5289 5.27946 -1.37359
3 2 4.98954 6.57858 5.37497 36.9882 -6.21625 -22.9441
5 2 4.36889 4.75452 3.52263 -11.7408 -31.6393 6.93923
4 2 5.70407 5.17293 6.33229 26.7741 2.14254 33.838
6 2 5.4675 3.60568 4.70629 -45.9484 -0.328568 0.771579
1 1 4.8189 4.54091 4.52741 -11.0386 -2.25484 -0.187723
ITEM: TIMESTEP
93000
ITEM: NUMBER OF ATOMS
6
ITEM: BOX BOUNDS pp pp pp
0.0000000000000000e+00 1.0000000000000000e+01
0.0000000000000000e+00 1.0000000000000000e+01
0.0000000000000000e+00 1.0000000000000000e+01
ITEM: ATOMS id type x y z vx vy vz
5 2 3.60245 4.57975 4.6592 1.40898 -23.8364 58.147
2 1 5.64043 4.90934 4.76576 1.61049 -3.33454 -3.20659
3 2 5.89498 4.26129 3.91673 -20.58 -51.9224 -9.83627
6 2 4.0364 5.58202 6.08994 5.33985 -6.22138 -25.9772
1 1 4.36117 5.09852 5.23361 -1.83609 13.4192 3.78255
4 2 6.44937 5.48281 5.34339 16.5194 -38.1899 -29.1967
ITEM: TIMESTEP
93100
ITEM: NUMBER OF ATOMS
6
ITEM: BOX BOUNDS pp pp pp
0.0000000000000000e+00 1.0000000000000000e+01
0.0000000000000000e+00 1.0000000000000000e+01
0.0000000000000000e+00 1.0000000000000000e+01
ITEM: ATOMS id type x y z vx vy vz
5 2 5.47739 5.76391 6.25819 75.0197 0.634795 -0.149345
2 1 4.82124 4.38634 4.74333 -9.7152 -5.66791 12.1215
3 2 5.051 3.42377 5.27457 -23.2963 0.509015 -43.1847
6 2 5.05588 6.51411 4.67667 12.4203 33.0681 -38.9033
1 1 5.18323 5.61678 5.25951 5.42894 2.91685 -4.80485
4 2 4.36479 4.26072 3.75849 -13.0682 -1.42995 -4.94902
ITEM: TIMESTEP
93200
ITEM: NUMBER OF ATOMS
6
ITEM: BOX BOUNDS pp pp pp
0.0000000000000000e+00 1.0000000000000000e+01
0.0000000000000000e+00 1.0000000000000000e+01
0.0000000000000000e+00 1.0000000000000000e+01
ITEM: ATOMS id type x y z vx vy vz
5 2 5.9291 4.09049 3.89108 -4.08776 -32.8618 -48.1765
2 1 4.55254 5.00645 5.50767 3.79971 12.4078 10.5467
3 2 4.04213 4.174 5.98656 -16.5944 -7.45697 11.0589
6 2 5.96901 5.9541 4.31887 36.146 -25.7629 0.337765
1 1 5.42084 4.98553 4.46633 -6.41894 -6.52966 -6.71396
4 2 4.37928 5.87658 6.115 15.7472 -3.96288 -8.89128
ITEM: TIMESTEP
93300
ITEM: NUMBER OF ATOMS
6
ITEM: BOX BOUNDS pp pp pp
0.0000000000000000e+00 1.0000000000000000e+01
0.0000000000000000e+00 1.0000000000000000e+01
0.0000000000000000e+00 1.0000000000000000e+01
ITEM: ATOMS id type x y z vx vy vz
5 2 3.71177 4.89462 4.07714 31.3457 -1.94099 2.02454
2 1 5.39434 5.46187 5.31076 7.78592 2.61949 -7.62642
3 2 5.06339 6.47078 5.36814 24.3442 -4.859 -0.863444
6 2 4.65366 3.3782 4.57369 -50.7346 0.653966 30.1154
1 1 4.64184 4.54061 4.67777 -11.4801 -1.77714 4.76305
4 2 6.14239 5.22647 6.11947 39.0654 -3.89141 2.8437
ITEM: TIMESTEP
93400
ITEM: NUMBER OF ATOMS
6
ITEM: BOX BOUNDS pp pp pp
0.0000000000000000e+00 1.0000000000000000e+01
0.0000000000000000e+00 1.0000000000000000e+01
0.0000000000000000e+00 1.0000000000000000e+01
ITEM: ATOMS id type x y z vx vy vz
5 2 3.45074 5.34825 5.10019 5.32663 3.38249 28.2257
2 1 5.50619 4.694 4.65843 -6.20148 -15.2641 0.252196
3 2 5.41031 4.26843 3.59904 10.0716 -6.58917 -16.8671
6 2 4.71285 5.75661 6.28838 42.3506 13.5567 -61.8313
1 1 4.49019 5.31611 5.33649 1.89885 12.7461 6.32913
4 2 6.47169 4.50586 5.07464 -6.47839 19.6541 -27.9509
ITEM: TIMESTEP
93500
ITEM: NUMBER OF ATOMS
6
ITEM: BOX BOUNDS pp pp pp
0.0000000000000000e+00 1.0000000000000000e+01
0.0000000000000000e+00 1.0000000000000000e+01
0.0000000000000000e+00 1.0000000000000000e+01
ITEM: ATOMS id type x y z vx vy vz
5 2 5.76954 5.78579 6.009 40.2931 -4.53396 -7.64662
2 1 4.61708 4.4556 4.94434 -9.81826 0.427199 3.13986
3 2 4.29721 3.76944 5.65978 5.95245 43.7045 43.3007
6 2 5.50436 6.29434 4.30253 -16.9096 35.424 -17.2009
1 1 5.38925 5.55809 5.06198 9.98415 -6.55277 -4.71036
4 2 4.35589 3.98689 3.95508 -31.3126 -1.6017 0.261048
ITEM: TIMESTEP
93600
ITEM: NUMBER OF ATOMS
6
ITEM: BOX BOUNDS pp pp pp
0.0000000000000000e+00 1.0000000000000000e+01
0.0000000000000000e+00 1.0000000000000000e+01
0.0000000000000000e+00 1.0000000000000000e+01
ITEM: ATOMS id type x y z vx vy vz
5 2 5.45882 3.62421 4.32617 -23.1915 -25.4769 3.4858
2 1 4.73739 5.27505 5.55678 13.4584 4.40626 4.10398
3 2 4.72792 4.55789 6.46223 -12.6283 -1.30571 21.4648
6 2 5.52448 5.17449 3.43555 5.31847 -8.76659 -1.62995
1 1 5.2683 4.76385 4.45238 -12.9863 -3.77041 -3.45025
4 2 4.22343 6.17953 5.66858 24.8767 27.9724 -31.1105
ITEM: TIMESTEP
93700
ITEM: NUMBER OF ATOMS
6
ITEM: BOX BOUNDS pp pp pp
0.0000000000000000e+00 1.0000000000000000e+01
0.0000000000000000e+00 1.0000000000000000e+01
0.0000000000000000e+00 1.0000000000000000e+01
ITEM: ATOMS id type x y z vx vy vz
5 2 3.42328 5.09098 4.76607 32.5259 11.8305 -0.600489
2 1 5.56293 5.3252 5.14276 -0.379474 -9.50004 -10.126
3 2 5.70444 6.22393 5.70578 20.8991 5.24303 -31.1641
6 2 4.45266 3.64789 4.49302 3.44473 25.3011 38.3217
1 1 4.41853 4.68213 4.8767 -4.79835 7.37201 9.4703
4 2 6.64291 4.94945 4.805 4.82964 -17.0168 1.2564
ITEM: TIMESTEP
93800
ITEM: NUMBER OF ATOMS
6
ITEM: BOX BOUNDS pp pp pp
0.0000000000000000e+00 1.0000000000000000e+01
0.0000000000000000e+00 1.0000000000000000e+01
0.0000000000000000e+00 1.0000000000000000e+01
ITEM: ATOMS id type x y z vx vy vz
5 2 4.1591 6.25768 5.0903 11.054 2.49688 -23.0892
2 1 5.23908 4.54544 4.5629 -12.3666 -7.43955 1.73715
3 2 5.2714 4.57193 3.40309 -45.2044 2.35352 25.382
6 2 4.93617 5.50331 6.46189 -10.2017 30.507 20.9084
1 1 4.75015 5.45378 5.45021 16.8533 2.46065 -2.76491
4 2 5.76405 3.67595 4.89017 -9.11181 23.9716 -10.9543
ITEM: TIMESTEP
93900
ITEM: NUMBER OF ATOMS
6
ITEM: BOX BOUNDS pp pp pp
0.0000000000000000e+00 1.0000000000000000e+01
0.0000000000000000e+00 1.0000000000000000e+01
0.0000000000000000e+00 1.0000000000000000e+01
ITEM: ATOMS id type x y z vx vy vz
5 2 5.60815 6.47915 4.95555 14.0661 23.624 -2.39055
2 1 4.47283 4.62009 5.21087 -0.864304 9.62559 8.30752
3 2 3.74869 5.18306 5.62735 32.9752 3.88022 37.3022
6 2 6.34091 5.03209 4.05715 4.98229 -29.6527 -21.242
1 1 5.52466 5.36148 4.80033 -2.48989 -11.1499 -8.04734
4 2 4.33457 3.5249 5.22829 -12.0547 20.3117 -16.7699
ITEM: TIMESTEP
94000
ITEM: NUMBER OF ATOMS
6
ITEM: BOX BOUNDS pp pp pp
0.0000000000000000e+00 1.0000000000000000e+01
0.0000000000000000e+00 1.0000000000000000e+01
0.0000000000000000e+00 1.0000000000000000e+01
ITEM: ATOMS id type x y z vx vy vz
6 2 4.32338 4.8176 3.63048 -12.6712 27.1933 30.9111
5 2 5.83576 3.71292 4.29952 -21.9684 16.1732 -6.4583
1 1 5.04578 4.59841 4.46533 -9.47743 -9.19892 8.31448
2 1 4.95797 5.39801 5.54014 9.97937 1.93911 -10.0759
4 2 4.18851 6.09557 5.55856 13.8366 58.2191 -14.8238
3 2 5.61003 5.4162 6.44804 14.822 -15.077 11.3605
ITEM: TIMESTEP
94100
ITEM: NUMBER OF ATOMS
6
ITEM: BOX BOUNDS pp pp pp
0.0000000000000000e+00 1.0000000000000000e+01
0.0000000000000000e+00 1.0000000000000000e+01
0.0000000000000000e+00 1.0000000000000000e+01
ITEM: ATOMS id type x y z vx vy vz
6 2 3.55707 5.04754 4.40202 16.8196 7.42173 56.1705
5 2 4.01222 4.84917 6.14715 48.2408 13.8865 -18.5976
1 1 4.35357 4.89477 5.15764 0.747464 11.8159 2.60855
2 1 5.64841 5.0885 4.85707 -5.35168 -10.1009 -5.61116
4 2 5.93101 5.26221 3.71517 -9.80516 -50.5039 -23.0888
3 2 6.47853 5.04004 5.5622 -0.391066 8.75991 21.2953
ITEM: TIMESTEP
94200
ITEM: NUMBER OF ATOMS
6
ITEM: BOX BOUNDS pp pp pp
0.0000000000000000e+00 1.0000000000000000e+01
0.0000000000000000e+00 1.0000000000000000e+01
0.0000000000000000e+00 1.0000000000000000e+01
ITEM: ATOMS id type x y z vx vy vz
6 2 4.47575 5.81276 6.13639 -6.25941 -13.6517 -7.33487
5 2 5.42888 6.45376 4.83937 -6.51265 -3.25966 -26.3391
1 1 4.99651 5.59839 5.32023 16.1929 -2.83506 -4.62781
2 1 5.01858 4.38526 4.70625 -10.7174 3.56024 3.43779
4 2 4.5 3.52908 5.09379 2.43426 14.3649 30.9382
3 2 5.41793 4.3988 3.61673 -54.909 -6.09485 16.9161
ITEM: TIMESTEP
94300
ITEM: NUMBER OF ATOMS
6
ITEM: BOX BOUNDS pp pp pp
0.0000000000000000e+00 1.0000000000000000e+01
0.0000000000000000e+00 1.0000000000000000e+01
0.0000000000000000e+00 1.0000000000000000e+01
ITEM: ATOMS id type x y z vx vy vz
6 2 6.43629 4.47005 4.88756 5.03141 -43.8119 27.1745
5 2 5.48338 5.68474 3.71974 -30.5535 -0.443808 -20.1854
1 1 5.57268 5.11433 4.61856 -7.15761 -9.34748 -4.04764
2 1 4.42988 4.90926 5.36994 7.40938 7.02147 0.836075
4 2 4.53928 4.15146 6.16556 4.93678 30.6501 -17.3781
3 2 3.51289 5.41213 5.36586 17.5852 41.3224 48.6584
ITEM: TIMESTEP
94400
ITEM: NUMBER OF ATOMS
6
ITEM: BOX BOUNDS pp pp pp
0.0000000000000000e+00 1.0000000000000000e+01
0.0000000000000000e+00 1.0000000000000000e+01
0.0000000000000000e+00 1.0000000000000000e+01
ITEM: ATOMS id type x y z vx vy vz
6 2 3.65214 4.24308 4.8 -13.2315 24.616 -6.76825
5 2 5.2439 4.3792 3.53999 -12.5626 -22.6635 14.9467
1 1 4.7183 4.55359 4.55945 -8.85582 1.85532 8.90699
2 1 5.28693 5.40915 5.46494 11.7964 0.16242 -8.97769
4 2 4.73184 5.96788 6.21131 -27.0274 13.9007 15.1391
3 2 6.31224 5.8534 5.15988 17.7819 -39.8967 -22.4751
ITEM: TIMESTEP
94500
ITEM: NUMBER OF ATOMS
6
ITEM: BOX BOUNDS pp pp pp
0.0000000000000000e+00 1.0000000000000000e+01
0.0000000000000000e+00 1.0000000000000000e+01
0.0000000000000000e+00 1.0000000000000000e+01
ITEM: ATOMS id type x y z vx vy vz
6 2 3.65684 5.81485 5.00584 27.1173 0.31194 -27.6315
5 2 4.16377 4.53028 6.15027 10.7655 27.6499 17.5699
1 1 4.41854 5.12998 5.3182 3.23355 7.6021 10.1355
2 1 5.60581 4.89197 4.6906 -1.89775 -4.00898 -8.02858
4 2 5.77268 5.32549 3.58138 -26.3372 -40.3455 -8.83917
3 2 6.11904 4.06749 5.15949 -27.4631 -30.4323 -6.20485
ITEM: TIMESTEP
94600
ITEM: NUMBER OF ATOMS
6
ITEM: BOX BOUNDS pp pp pp
0.0000000000000000e+00 1.0000000000000000e+01
0.0000000000000000e+00 1.0000000000000000e+01
0.0000000000000000e+00 1.0000000000000000e+01
ITEM: ATOMS id type x y z vx vy vz
6 2 4.61834 6.38901 5.52268 -8.33316 6.96401 37.1283
5 2 6.37358 5.61148 4.92119 12.6318 -36.8028 -30.7157
1 1 5.2858 5.60594 5.10595 8.58592 1.67819 -8.68534
2 1 4.72086 4.40739 4.90663 -8.96434 -1.62926 0.197337
4 2 3.66776 4.32223 4.94991 28.9796 20.7466 58.3263
3 2 5.26334 3.51806 4.45805 -28.769 8.50911 36.4049
ITEM: TIMESTEP
94700
ITEM: NUMBER OF ATOMS
6
ITEM: BOX BOUNDS pp pp pp
0.0000000000000000e+00 1.0000000000000000e+01
0.0000000000000000e+00 1.0000000000000000e+01
0.0000000000000000e+00 1.0000000000000000e+01
ITEM: ATOMS id type x y z vx vy vz
6 2 6.49536 4.57474 4.69975 -33.1629 -44.5233 -37.1941
5 2 5.06738 5.17465 3.45268 -25.2337 -12.1411 3.34003
1 1 5.41168 4.89755 4.48995 -2.66338 -6.34777 -1.86629
2 1 4.57491 5.08057 5.51139 1.58652 9.06759 7.10597
4 2 4.88907 4.95579 6.54274 32.6413 -1.45705 13.4066
3 2 3.71043 5.55512 5.29074 38.5874 25.7119 -41.989
ITEM: TIMESTEP
94800
ITEM: NUMBER OF ATOMS
6
ITEM: BOX BOUNDS pp pp pp
0.0000000000000000e+00 1.0000000000000000e+01
0.0000000000000000e+00 1.0000000000000000e+01
0.0000000000000000e+00 1.0000000000000000e+01
ITEM: ATOMS id type x y z vx vy vz
6 2 3.87555 4.03013 5.36835 -0.86609 21.121 40.8561
5 2 4.48912 4.38845 3.76354 -1.51068 -5.41627 39.416
1 1 4.47292 4.66138 4.79314 -9.59156 4.46527 1.11304
2 1 5.50789 5.37216 5.22181 4.17875 -2.52999 -4.34461
4 2 5.65525 5.40741 6.27067 18.7269 -5.88513 3.99218
3 2 6.2111 5.77398 4.42101 48.1494 -32.8806 -45.7567
ITEM: TIMESTEP
94900
ITEM: NUMBER OF ATOMS
6
ITEM: BOX BOUNDS pp pp pp
0.0000000000000000e+00 1.0000000000000000e+01
0.0000000000000000e+00 1.0000000000000000e+01
0.0000000000000000e+00 1.0000000000000000e+01
ITEM: ATOMS id type x y z vx vy vz
6 2 4.50115 6.35789 4.98835 27.7378 10.9955 -0.152159
5 2 4.133 4.99842 6.3038 40.0355 -0.743918 64.6804
1 1 4.55417 5.32958 5.36786 1.62244 12.6137 -1.86559
2 1 5.41824 4.6531 4.65051 -4.17002 -12.7674 -2.10032
4 2 5.82362 5.19628 3.70716 -26.9678 -18.3441 -16.1973
3 2 5.87336 3.65332 4.78344 -10.4484 9.92385 -1.07277
ITEM: TIMESTEP
95000
ITEM: NUMBER OF ATOMS
6
ITEM: BOX BOUNDS pp pp pp
0.0000000000000000e+00 1.0000000000000000e+01
0.0000000000000000e+00 1.0000000000000000e+01
0.0000000000000000e+00 1.0000000000000000e+01
ITEM: ATOMS id type x y z vx vy vz
6 2 5.20416 6.54982 4.99997 32.8691 24.145 -15.9693
5 2 6.6126 5.24517 4.97471 3.35819 -20.6634 -47.6972
1 1 5.4435 5.46033 4.88068 6.54469 -5.83629 -6.21917
2 1 4.53532 4.5375 5.0987 -12.1631 2.97829 11.0879
4 2 3.52115 4.71107 5.23833 14.9326 4.75654 20.7767
3 2 4.91686 3.51931 5.03455 15.7901 25.8181 -15.1262
ITEM: TIMESTEP
95100
ITEM: NUMBER OF ATOMS
6
ITEM: BOX BOUNDS pp pp pp
0.0000000000000000e+00 1.0000000000000000e+01
0.0000000000000000e+00 1.0000000000000000e+01
0.0000000000000000e+00 1.0000000000000000e+01
ITEM: ATOMS id type x y z vx vy vz
6 2 6.21 4.15536 4.32674 -52.2186 -26.7363 39.5375
5 2 4.64933 4.74842 3.54777 3.63626 2.51277 7.85561
1 1 5.20637 4.72591 4.44809 -3.96023 -9.72428 -11.8988
2 1 4.78189 5.2829 5.55375 4.17669 5.5895 4.33686
4 2 5.45997 5.2187 6.42804 36.8057 19.317 2.24626
3 2 3.82298 5.77209 5.67732 9.19725 54.1771 40.4692
ITEM: TIMESTEP
95200
ITEM: NUMBER OF ATOMS
6
ITEM: BOX BOUNDS pp pp pp
0.0000000000000000e+00 1.0000000000000000e+01
0.0000000000000000e+00 1.0000000000000000e+01
0.0000000000000000e+00 1.0000000000000000e+01
ITEM: ATOMS id type x y z vx vy vz
6 2 4.02531 4.54355 5.90929 -36.9059 40.8172 26.5932
5 2 3.79813 4.62438 4.07143 -7.12971 -3.65738 26.8039
1 1 4.3775 4.80725 4.98416 -7.82294 5.95808 5.8743
2 1 5.60404 5.18005 5.0019 10.92 -8.60544 -8.37221
4 2 6.1279 5.35612 5.96679 15.4362 14.262 -27.0829
3 2 6.27103 5.62687 4.22032 -8.30574 -19.8756 3.45109
ITEM: TIMESTEP
95300
ITEM: NUMBER OF ATOMS
6
ITEM: BOX BOUNDS pp pp pp
0.0000000000000000e+00 1.0000000000000000e+01
0.0000000000000000e+00 1.0000000000000000e+01
0.0000000000000000e+00 1.0000000000000000e+01