ITEM: TIMESTEP
93000
ITEM: NUMBER OF ATOMS
6
ITEM: BOX BOUNDS pp pp pp
0.0000000000000000e+00 1.0000000000000000e+01
0.0000000000000000e+00 1.0000000000000000e+01
0.0000000000000000e+00 1.0000000000000000e+01
ITEM: ATOMS id type x y z vx vy vz
2 1 5.60602 4.91012 4.74583 -8.46816 -11.7753 -9.88356
3 2 6.34794 4.11083 4.99612 4.45877 -10.6911 21.3802
4 2 6.09175 5.73825 4.22822 10.4138 -2.55536 11.158
5 2 3.99436 4.40432 5.92898 37.1221 51.4605 8.88865
6 2 3.79647 5.94756 5.0085 -32.5861 -3.06471 -0.585817
1 1 4.37484 5.07298 5.24074 6.8394 8.82557 6.45617
ITEM: TIMESTEP
93100
ITEM: NUMBER OF ATOMS
6
ITEM: BOX BOUNDS pp pp pp
0.0000000000000000e+00 1.0000000000000000e+01
0.0000000000000000e+00 1.0000000000000000e+01
0.0000000000000000e+00 1.0000000000000000e+01
ITEM: ATOMS id type x y z vx vy vz
2 1 4.89095 4.38648 4.72266 -7.48953 0.647564 11.4847
3 2 5.72605 3.7273 4.93353 -12.0113 3.08456 -24.9424
4 2 3.91567 4.00206 4.36541 -8.81778 24.0065 -3.98323
5 2 6.0611 6.02347 5.57957 51.4457 34.0595 -40.9213
6 2 4.38075 6.38236 5.25423 20.0545 5.29045 3.88125
1 1 5.10224 5.60214 5.26635 3.23721 -6.22331 -5.94887
ITEM: TIMESTEP
93200
ITEM: NUMBER OF ATOMS
6
ITEM: BOX BOUNDS pp pp pp
0.0000000000000000e+00 1.0000000000000000e+01
0.0000000000000000e+00 1.0000000000000000e+01
0.0000000000000000e+00 1.0000000000000000e+01
ITEM: ATOMS id type x y z vx vy vz
2 1 4.44429 4.77222 5.32799 7.75981 12.7516 3.68304
3 2 3.58422 4.22755 4.95666 -17.643 13.4631 32.0173
4 2 4.5577 4.71769 6.39905 -11.5598 -8.0732 6.56867
5 2 5.5515 5.36465 3.52331 -11.6246 19.9177 14.4505
6 2 6.51427 5.43727 5.24422 7.73949 -17.6355 13.0965
1 1 5.53848 5.24896 4.66182 -4.98306 -13.3954 -9.23293
ITEM: TIMESTEP
93300
ITEM: NUMBER OF ATOMS
6
ITEM: BOX BOUNDS pp pp pp
0.0000000000000000e+00 1.0000000000000000e+01
0.0000000000000000e+00 1.0000000000000000e+01
0.0000000000000000e+00 1.0000000000000000e+01
ITEM: ATOMS id type x y z vx vy vz
2 1 5.06876 5.42399 5.52886 12.7439 3.5062 -6.03292
3 2 5.07257 6.54941 5.4297 12.8895 -2.9993 -12.9018
4 2 5.09043 5.05823 6.59453 -8.72111 4.48537 -1.96219
5 2 4.81791 5.02188 3.48323 -6.76751 4.20871 4.47846
6 2 4.55944 3.51851 4.60341 -17.415 44.9779 -27.4412
1 1 4.97001 4.56355 4.46199 -11.0643 -7.75866 9.20735
ITEM: TIMESTEP
93400
ITEM: NUMBER OF ATOMS
6
ITEM: BOX BOUNDS pp pp pp
0.0000000000000000e+00 1.0000000000000000e+01
0.0000000000000000e+00 1.0000000000000000e+01
0.0000000000000000e+00 1.0000000000000000e+01
ITEM: ATOMS id type x y z vx vy vz
2 1 5.66721 5.19011 4.98359 5.25908 -4.73242 -6.6483
3 2 6.24155 4.35488 4.63676 -9.44841 -1.08679 11.0117
4 2 6.11256 6.10619 5.37427 -8.59489 -7.12987 -44.2791
5 2 4.01115 3.83226 4.7676 -29.8473 38.2863 9.28316
6 2 3.59055 5.51887 5.19897 2.73281 42.5399 -19.1772
1 1 4.3367 4.82562 5.01843 -1.46943 -1.36099 10.2704
ITEM: TIMESTEP
93500
ITEM: NUMBER OF ATOMS
6
ITEM: BOX BOUNDS pp pp pp
0.0000000000000000e+00 1.0000000000000000e+01
0.0000000000000000e+00 1.0000000000000000e+01
0.0000000000000000e+00 1.0000000000000000e+01
ITEM: ATOMS id type x y z vx vy vz
2 1 5.22613 4.48667 4.6297 -8.93024 -3.62657 0.939849
3 2 5.80362 3.61211 4.90425 -2.06614 -14.5106 -0.516319
4 2 4.90129 4.53746 3.62727 -41.6119 -30.8953 -8.25572
5 2 5.2307 5.74929 6.32885 37.9709 5.59913 46.4317
6 2 4.11773 6.28352 4.90984 -9.29313 -12.5067 -18.8938
1 1 4.7696 5.49799 5.38974 10.1891 8.01672 -2.51468
ITEM: TIMESTEP
93600
ITEM: NUMBER OF ATOMS
6
ITEM: BOX BOUNDS pp pp pp
0.0000000000000000e+00 1.0000000000000000e+01
0.0000000000000000e+00 1.0000000000000000e+01
0.0000000000000000e+00 1.0000000000000000e+01
ITEM: ATOMS id type x y z vx vy vz
2 1 4.54047 4.55007 5.14476 -2.6931 5.84516 2.79493
3 2 4.51902 3.61748 4.557 -26.6331 11.6228 -20.375
4 2 3.71425 4.62098 5.95166 24.3584 5.26151 39.5815
5 2 6.04607 5.25104 3.84494 -26.8419 -24.0192 -16.392
6 2 5.56293 6.45188 5.36965 22.1041 27.0116 -30.3879
1 1 5.47297 5.45482 4.87861 3.28159 -7.51322 -0.480965
ITEM: TIMESTEP
93700
ITEM: NUMBER OF ATOMS
6
ITEM: BOX BOUNDS pp pp pp
0.0000000000000000e+00 1.0000000000000000e+01
0.0000000000000000e+00 1.0000000000000000e+01
0.0000000000000000e+00 1.0000000000000000e+01
ITEM: ATOMS id type x y z vx vy vz
2 1 4.72306 5.23213 5.57454 7.19519 7.8053 3.42277
3 2 3.97388 6.05814 5.48634 57.0045 21.1252 -5.57032
4 2 5.18806 5.07418 6.5228 2.32237 -23.3023 -18.5799
5 2 4.9756 5.06178 3.44192 10.7033 -28.4574 15.9593
6 2 6.00277 3.87696 4.44113 -20.8588 30.4959 15.9504
1 1 5.26537 4.76187 4.43466 -11.3217 -7.79367 -4.07394
ITEM: TIMESTEP
93800
ITEM: NUMBER OF ATOMS
6
ITEM: BOX BOUNDS pp pp pp
0.0000000000000000e+00 1.0000000000000000e+01
0.0000000000000000e+00 1.0000000000000000e+01
0.0000000000000000e+00 1.0000000000000000e+01
ITEM: ATOMS id type x y z vx vy vz
2 1 5.56669 5.32039 5.17229 0.84253 -0.369553 -7.06275
3 2 6.36657 5.61058 4.53318 35.6354 -64.922 -20.0075
4 2 5.63319 5.60378 6.22485 16.7569 22.1164 -2.40496
5 2 4.16415 4.48664 3.78827 7.72845 29.2669 0.572767
6 2 3.69101 4.46154 5.4557 12.9083 24.1802 7.78795
1 1 4.44568 4.66593 4.82769 -6.97114 -0.523486 8.24198
ITEM: TIMESTEP
93900
ITEM: NUMBER OF ATOMS
6
ITEM: BOX BOUNDS pp pp pp
0.0000000000000000e+00 1.0000000000000000e+01
0.0000000000000000e+00 1.0000000000000000e+01
0.0000000000000000e+00 1.0000000000000000e+01
ITEM: ATOMS id type x y z vx vy vz
2 1 5.4996 4.74352 4.65535 -6.02885 -9.5966 -4.99678
3 2 5.72418 3.62765 4.84242 17.5906 -3.58459 32.7319
4 2 6.02853 5.07848 3.74252 -33.6554 -12.4827 -27.6037
5 2 3.98498 4.77462 6.10638 -9.04169 -9.13569 17.9756
6 2 4.26379 6.35536 5.23245 14.8043 54.2727 2.72435
1 1 4.50047 5.2702 5.3512 6.89342 7.15706 2.82928
ITEM: TIMESTEP
94000
ITEM: NUMBER OF ATOMS
6
ITEM: BOX BOUNDS pp pp pp
0.0000000000000000e+00 1.0000000000000000e+01
0.0000000000000000e+00 1.0000000000000000e+01
0.0000000000000000e+00 1.0000000000000000e+01
ITEM: ATOMS id type x y z vx vy vz
2 1 4.66345 4.42754 4.90799 -9.24025 1.69119 1.17435
4 2 3.60207 4.56712 4.62345 -5.75397 11.0213 57.6373
6 2 4.98517 6.51537 4.6867 4.61871 -21.1405 -10.5468
3 2 5.02112 3.42227 5.07178 -8.92304 26.2169 10.7505
5 2 6.41465 5.71738 5.59494 34.6516 9.70675 -9.53632
1 1 5.33482 5.55379 5.0941 7.17638 -3.85669 -5.22809
ITEM: TIMESTEP
94100
ITEM: NUMBER OF ATOMS
6
ITEM: BOX BOUNDS pp pp pp
0.0000000000000000e+00 1.0000000000000000e+01
0.0000000000000000e+00 1.0000000000000000e+01
0.0000000000000000e+00 1.0000000000000000e+01
ITEM: ATOMS id type x y z vx vy vz
2 1 4.567 4.98313 5.50144 2.2937 8.25477 0.0443987
4 2 4.83473 5.45787 6.42403 19.2086 -28.1157 16.1955
6 2 6.42153 5.57247 4.44552 1.88584 -16.3215 -20.4504
3 2 3.56529 4.6212 5.41241 -21.2357 26.6274 19.0424
5 2 5.27366 4.33197 3.60804 -44.2143 5.86151 52.0545
1 1 5.42521 5.01822 4.50794 1.42863 -7.25207 -5.65379
ITEM: TIMESTEP
94200
ITEM: NUMBER OF ATOMS
6
ITEM: BOX BOUNDS pp pp pp
0.0000000000000000e+00 1.0000000000000000e+01
0.0000000000000000e+00 1.0000000000000000e+01
0.0000000000000000e+00 1.0000000000000000e+01
ITEM: ATOMS id type x y z vx vy vz
2 1 5.28617 5.42492 5.3903 5.35246 -0.140497 -7.04709
4 2 5.95081 5.37103 6.27258 16.8077 -23.1396 1.43374
6 2 4.85522 3.53905 4.77016 -26.5543 33.2803 31.0233
3 2 5.34843 6.48857 5.01452 38.9366 -8.2714 -15.8997
5 2 4.0117 4.84099 3.86047 -23.832 -18.8585 -2.03665
1 1 4.70009 4.55493 4.61675 -5.8021 1.56622 5.82851
ITEM: TIMESTEP
94300
ITEM: NUMBER OF ATOMS
6
ITEM: BOX BOUNDS pp pp pp
0.0000000000000000e+00 1.0000000000000000e+01
0.0000000000000000e+00 1.0000000000000000e+01
0.0000000000000000e+00 1.0000000000000000e+01
ITEM: ATOMS id type x y z vx vy vz
2 1 5.60809 4.8807 4.76193 -6.49193 -0.930661 -2.09054
4 2 6.34419 5.46272 5.28465 2.11643 -23.6331 -20.1389
6 2 4.20151 5.51429 6.23933 8.6238 51.4593 28.5196
3 2 5.89049 4.25504 3.94099 -23.0516 -39.4321 13.8374
5 2 3.45808 4.8438 4.76995 -5.78813 10.5904 29.1979
1 1 4.40098 5.1129 5.21851 8.01084 1.01588 -2.2243
ITEM: TIMESTEP
94400
ITEM: NUMBER OF ATOMS
6
ITEM: BOX BOUNDS pp pp pp
0.0000000000000000e+00 1.0000000000000000e+01
0.0000000000000000e+00 1.0000000000000000e+01
0.0000000000000000e+00 1.0000000000000000e+01
ITEM: ATOMS id type x y z vx vy vz
2 1 4.99113 4.40147 4.68581 -7.71869 6.14511 10.6197
4 2 4.75647 4.20757 3.62882 -31.1977 -32.7255 -10.945
6 2 5.22304 6.57152 4.75678 10.8793 -20.699 14.203
3 2 4.8629 3.52135 5.32177 -8.94916 -8.09597 -0.0678515
5 2 4.96082 5.6865 6.44394 49.6834 -27.9642 0.706401
1 1 5.02559 5.5996 5.30165 6.00539 1.36445 -10.9467
ITEM: TIMESTEP
94500
ITEM: NUMBER OF ATOMS
6
ITEM: BOX BOUNDS pp pp pp
0.0000000000000000e+00 1.0000000000000000e+01
0.0000000000000000e+00 1.0000000000000000e+01
0.0000000000000000e+00 1.0000000000000000e+01
ITEM: ATOMS id type x y z vx vy vz
2 1 4.46312 4.82095 5.36357 -1.20738 9.35478 2.12226
4 2 3.53154 5.43722 5.64436 25.3928 11.6022 15.7144
6 2 5.57838 6.15398 4.16376 -1.06005 -5.56885 6.86029
3 2 4.39127 3.75124 5.75035 0.664975 12.2993 26.642
5 2 6.4143 4.58307 4.71685 -27.2271 2.86256 -63.0615
1 1 5.54417 5.18527 4.61347 1.39447 -11.1335 -0.960395
ITEM: TIMESTEP
94600
ITEM: NUMBER OF ATOMS
6
ITEM: BOX BOUNDS pp pp pp
0.0000000000000000e+00 1.0000000000000000e+01
0.0000000000000000e+00 1.0000000000000000e+01
0.0000000000000000e+00 1.0000000000000000e+01
ITEM: ATOMS id type x y z vx vy vz
2 1 5.01057 5.37341 5.56643 5.30016 6.30659 0.757276
4 2 6.00477 5.50201 5.93478 1.06991 -8.89029 -13.86
6 2 5.86334 4.19156 4.0072 -30.9276 -71.5528 14.039
3 2 4.18768 5.87011 6.06472 35.5907 -9.02914 -8.63628
5 2 4.06553 4.28609 4.05041 -51.5292 -4.62003 -0.853991
1 1 4.97945 4.63917 4.42893 -1.45693 1.58965 0.0241276
ITEM: TIMESTEP
94700
ITEM: NUMBER OF ATOMS
6
ITEM: BOX BOUNDS pp pp pp
0.0000000000000000e+00 1.0000000000000000e+01
0.0000000000000000e+00 1.0000000000000000e+01
0.0000000000000000e+00 1.0000000000000000e+01
ITEM: ATOMS id type x y z vx vy vz
2 1 5.64246 5.1629 4.95161 0.00298214 -6.92861 -5.31288
4 2 6.48857 4.85727 5.53377 13.4205 -18.8242 -22.056
6 2 3.997 4.05974 5.81929 -28.7912 23.3424 70.8981
3 2 5.85355 5.80142 4.12777 10.2135 8.52678 -29.3237
5 2 3.5745 5.11751 4.2681 5.02059 8.26066 -13.0645
1 1 4.36499 4.85083 5.06961 0.00848227 5.14064 4.77126
ITEM: TIMESTEP
94800
ITEM: NUMBER OF ATOMS
6
ITEM: BOX BOUNDS pp pp pp
0.0000000000000000e+00 1.0000000000000000e+01
0.0000000000000000e+00 1.0000000000000000e+01
0.0000000000000000e+00 1.0000000000000000e+01
ITEM: ATOMS id type x y z vx vy vz
2 1 5.21972 4.4865 4.66453 -4.77718 -1.43881 3.54196
4 2 6.31172 4.43039 4.39085 -2.48002 -16.6686 -20.7016
6 2 5.54406 6.36004 5.65195 5.77498 -19.3225 -38.9575
3 2 4.6943 3.50653 4.44499 -22.422 9.54455 14.647
5 2 3.82067 5.46051 5.90595 35.0044 23.4619 35.4431
1 1 4.74936 5.53382 5.30257 3.44476 1.68928 -2.73893
ITEM: TIMESTEP
94900
ITEM: NUMBER OF ATOMS
6
ITEM: BOX BOUNDS pp pp pp
0.0000000000000000e+00 1.0000000000000000e+01
0.0000000000000000e+00 1.0000000000000000e+01
0.0000000000000000e+00 1.0000000000000000e+01
ITEM: ATOMS id type x y z vx vy vz
2 1 4.50357 4.55947 5.11328 -3.49763 4.55773 8.4702
4 2 3.80322 4.45635 4.30402 12.6041 16.4071 23.1872
6 2 5.44926 6.16808 4.13291 36.5982 -26.7454 19.6359
3 2 4.44603 3.84701 5.91302 10.5231 18.1647 3.84394
5 2 6.3943 5.48578 5.56884 -3.82406 -53.8871 -56.4236
1 1 5.48884 5.44409 4.89368 -1.19362 -0.692309 -7.65143
ITEM: TIMESTEP
95000
ITEM: NUMBER OF ATOMS
6
ITEM: BOX BOUNDS pp pp pp
0.0000000000000000e+00 1.0000000000000000e+01
0.0000000000000000e+00 1.0000000000000000e+01
0.0000000000000000e+00 1.0000000000000000e+01
ITEM: ATOMS id type x y z vx vy vz
5 2 5.09972 3.77689 4.12562 -49.0454 -1.70519 -10.8147
1 1 5.19066 4.74116 4.40225 -6.62697 -4.75027 3.21806
6 2 5.91738 5.29199 3.78975 -2.15071 4.43679 -7.28399
3 2 4.26455 4.52756 6.18293 -38.9529 18.9788 15.9205
2 1 4.79269 5.26814 5.59843 13.1267 1.04122 -1.79083
4 2 4.91918 6.29224 5.89537 12.6976 22.4869 -14.8288
ITEM: TIMESTEP
95100
ITEM: NUMBER OF ATOMS
6
ITEM: BOX BOUNDS pp pp pp
0.0000000000000000e+00 1.0000000000000000e+01
0.0000000000000000e+00 1.0000000000000000e+01
0.0000000000000000e+00 1.0000000000000000e+01
ITEM: ATOMS id type x y z vx vy vz
5 2 3.48315 5.07449 4.45009 -39.1954 16.3999 5.64995
1 1 4.49473 4.60661 4.76441 -4.29253 6.07579 3.48759
6 2 4.59599 3.54566 4.86147 4.08831 -3.00283 40.9986
3 2 5.48362 6.48668 5.55584 32.168 8.72306 -39.3498
2 1 5.50738 5.39767 5.19729 3.12629 -7.32329 -4.10414
4 2 6.41445 4.84173 5.59078 16.8361 -7.25489 0.0480727
ITEM: TIMESTEP
95200
ITEM: NUMBER OF ATOMS
6
ITEM: BOX BOUNDS pp pp pp
0.0000000000000000e+00 1.0000000000000000e+01
0.0000000000000000e+00 1.0000000000000000e+01
0.0000000000000000e+00 1.0000000000000000e+01
ITEM: ATOMS id type x y z vx vy vz
5 2 3.59128 5.5355 4.84907 25.8326 4.25977 6.71203
1 1 4.52382 5.32783 5.35794 5.02633 9.63119 6.02996
6 2 4.68154 5.70519 6.466 1.17004 33.4883 -9.68327
3 2 5.36513 4.5767 3.56274 -19.3099 -4.86311 6.07307
2 1 5.46299 4.63956 4.65166 -3.43206 -14.6362 -4.38361
4 2 6.52159 4.57073 5.00959 -26.6902 26.7546 -22.7199
ITEM: TIMESTEP
95300
ITEM: NUMBER OF ATOMS
6
ITEM: BOX BOUNDS pp pp pp
0.0000000000000000e+00 1.0000000000000000e+01
0.0000000000000000e+00 1.0000000000000000e+01
0.0000000000000000e+00 1.0000000000000000e+01
ITEM: ATOMS id type x y z vx vy vz
5 2 5.17476 6.06318 6.11388 29.2454 8.98917 -19.4151
1 1 5.26742 5.59325 5.13044 8.79918 4.40111 -2.30625
6 2 5.6972 6.22937 4.44826 -19.8199 -32.7412 -10.195
3 2 4.32607 3.929 5.72546 -11.5163 21.5422 -3.04277
2 1 4.73019 4.39724 4.85249 -3.37613 -5.22732 8.02534
4 2 4.83291 3.89139 3.9176 -62.5308 12.055 -35.4963
ITEM: TIMESTEP
95400
ITEM: NUMBER OF ATOMS
6
ITEM: BOX BOUNDS pp pp pp
0.0000000000000000e+00 1.0000000000000000e+01
0.0000000000000000e+00 1.0000000000000000e+01
0.0000000000000000e+00 1.0000000000000000e+01
ITEM: ATOMS id type x y z vx vy vz
5 2 6.13812 4.21432 4.43343 9.0555 -37.2068 13.289
1 1 5.44662 4.98829 4.51256 -6.35759 -10.5876 -9.61832
6 2 5.45166 5.82078 3.79571 5.13756 30.758 -6.07804
3 2 4.30848 4.22921 6.23683 -17.0281 -7.83176 22.6923
2 1 4.58378 5.01195 5.5005 4.708 10.2213 4.39872
4 2 3.74197 5.73243 5.38019 22.4918 18.6452 32.2939
ITEM: TIMESTEP
95500
ITEM: NUMBER OF ATOMS
6
ITEM: BOX BOUNDS pp pp pp
0.0000000000000000e+00 1.0000000000000000e+01
0.0000000000000000e+00 1.0000000000000000e+01
0.0000000000000000e+00 1.0000000000000000e+01
ITEM: ATOMS id type x y z vx vy vz
5 2 3.5699 4.58221 4.43685 -28.6033 23.5393 19.3114
1 1 4.73732 4.56827 4.57559 -2.15096 2.10606 5.23695
6 2 5.35969 4.15233 3.72839 -33.56 -34.3197 -12.1967
3 2 4.57502 5.95312 6.11273 22.2055 18.2258 -59.0953
2 1 5.27544 5.40308 5.43553 3.90043 -2.05361 -0.399958
4 2 6.34569 5.65327 5.59136 19.111 -8.07035 -5.65751
ITEM: TIMESTEP
95600
ITEM: NUMBER OF ATOMS
6
ITEM: BOX BOUNDS pp pp pp
0.0000000000000000e+00 1.0000000000000000e+01
0.0000000000000000e+00 1.0000000000000000e+01
0.0000000000000000e+00 1.0000000000000000e+01
ITEM: ATOMS id type x y z vx vy vz
5 2 3.51479 5.38607 4.53126 0.765879 -27.2698 45.1963
1 1 4.37293 5.03996 5.21401 0.815689 15.6026 2.85499
6 2 4.04074 4.47299 6.12564 23.8579 3.5787 -19.133
3 2 5.89781 5.42991 3.85092 -11.0559 -36.9925 -36.5705
2 1 5.64239 4.97836 4.79568 -0.00859721 -11.2657 -1.09816
4 2 6.36649 4.49232 5.37841 -23.1853 9.0047 -10.4274
ITEM: TIMESTEP
95700
ITEM: NUMBER OF ATOMS
6
ITEM: BOX BOUNDS pp pp pp
0.0000000000000000e+00 1.0000000000000000e+01
0.0000000000000000e+00 1.0000000000000000e+01
0.0000000000000000e+00 1.0000000000000000e+01
ITEM: ATOMS id type x y z vx vy vz
5 2 4.1424 6.00491 5.72131 17.9607 -26.0108 23.0664
1 1 4.98903 5.60705 5.28838 9.44786 7.76243 -6.95215
6 2 5.7591 6.30476 5.08152 2.55416 -21.1462 2.584
3 2 4.31787 3.56555 4.79128 -5.89468 -9.00117 35.1575
2 1 4.99874 4.38218 4.73555 -10.914 -1.53199 5.31847
4 2 5.92881 4.25273 4.12247 2.85009 -18.0843 -41.3407
ITEM: TIMESTEP
95800
ITEM: NUMBER OF ATOMS
6
ITEM: BOX BOUNDS pp pp pp
0.0000000000000000e+00 1.0000000000000000e+01
0.0000000000000000e+00 1.0000000000000000e+01
0.0000000000000000e+00 1.0000000000000000e+01
ITEM: ATOMS id type x y z vx vy vz
5 2 6.50073 5.21704 5.2386 16.1786 -24.1319 -0.942881
1 1 5.54295 5.26034 4.70943 -1.90944 -8.1625 -7.94414
6 2 5.48616 6.00357 3.94925 11.2802 16.4117 -47.247
3 2 4.69585 3.94584 6.08564 -2.15997 -23.8214 -8.45354
2 1 4.45291 4.73648 5.26081 -1.13494 8.93653 12.0414
4 2 3.36906 4.87102 5.08294 10.9782 22.3182 7.81966
ITEM: TIMESTEP
95900
ITEM: NUMBER OF ATOMS
6
ITEM: BOX BOUNDS pp pp pp
0.0000000000000000e+00 1.0000000000000000e+01
0.0000000000000000e+00 1.0000000000000000e+01
0.0000000000000000e+00 1.0000000000000000e+01
ITEM: ATOMS id type x y z vx vy vz
5 2 4.4145 3.75342 4.1187 -12.9667 -15.4994 -24.842
1 1 5.00041 4.64895 4.43659 -14.7297 -2.54209 1.87189
6 2 5.73715 5.02956 3.58229 22.0222 -23.4395 25.9119
3 2 4.29499 5.18918 6.38053 26.1512 27.3623 -21.457
2 1 4.97742 5.35005 5.57756 11.0173 4.96992 0.749296
4 2 5.81992 6.0394 5.75162 9.02989 -17.3537 -10.8473
ITEM: TIMESTEP
96000
ITEM: NUMBER OF ATOMS
6
ITEM: BOX BOUNDS pp pp pp
0.0000000000000000e+00 1.0000000000000000e+01
0.0000000000000000e+00 1.0000000000000000e+01
0.0000000000000000e+00 1.0000000000000000e+01
ITEM: ATOMS id type x y z vx vy vz
1 1 4.38467 4.73464 4.98483 -7.90278 2.91436 8.18023
5 2 3.52829 5.36804 4.55913 44.4977 1.58065 0.388
3 2 5.86711 6.24485 4.66206 22.8453 5.87766 -0.952125
6 2 4.11191 3.71622 5.19984 -27.2941 24.8684 32.9479
4 2 6.31565 4.81111 5.65375 26.2009 11.8729 0.576504
2 1 5.63038 5.25356 5.00904 2.34308 -6.6236 -10.9463
ITEM: TIMESTEP
96100
ITEM: NUMBER OF ATOMS
6
ITEM: BOX BOUNDS pp pp pp
0.0000000000000000e+00 1.0000000000000000e+01
0.0000000000000000e+00 1.0000000000000000e+01
0.0000000000000000e+00 1.0000000000000000e+01
ITEM: ATOMS id type x y z vx vy vz
1 1 4.70334 5.48663 5.35142 7.80673 12.4276 -0.939912
5 2 3.71849 5.74471 5.16288 -24.3723 2.68935 48.3913
3 2 4.7271 3.93268 3.91629 -6.72375 -6.2316 -22.2087
6 2 5.24781 5.9902 6.13434 26.3439 7.54026 -37.2947
4 2 6.30751 4.0507 4.73698 12.5616 2.27431 -5.22624
2 1 5.29679 4.53698 4.65288 -8.46209 -12.9539 2.31103
ITEM: TIMESTEP
96200
ITEM: NUMBER OF ATOMS
6
ITEM: BOX BOUNDS pp pp pp
0.0000000000000000e+00 1.0000000000000000e+01
0.0000000000000000e+00 1.0000000000000000e+01
0.0000000000000000e+00 1.0000000000000000e+01
ITEM: ATOMS id type x y z vx vy vz
1 1 5.42077 5.48347 4.96523 6.24653 -10.6612 -3.53966
5 2 5.85782 6.02849 5.8828 42.9085 -7.31544 -21.4174
3 2 4.31083 3.88198 5.89712 2.67062 36.0156 11.227
6 2 5.70562 6.02937 4.03758 -21.3647 45.121 -23.3772
4 2 4.26709 4.06227 4.08706 -6.69254 0.58231 15.3137
2 1 4.56757 4.51632 5.04292 -7.71697 4.41722 5.07154
ITEM: TIMESTEP
96300
ITEM: NUMBER OF ATOMS
6
ITEM: BOX BOUNDS pp pp pp
0.0000000000000000e+00 1.0000000000000000e+01
0.0000000000000000e+00 1.0000000000000000e+01
0.0000000000000000e+00 1.0000000000000000e+01
ITEM: ATOMS id type x y z vx vy vz
1 1 5.3056 4.78717 4.45959 -12.9353 -2.05814 -5.23206
5 2 5.67047 3.75317 4.39422 -43.5212 -15.7968 22.9178
3 2 4.8465 4.59333 6.43409 -5.6742 2.91717 28.8064
6 2 5.43768 5.36262 3.47606 21.3136 -24.4931 31.9904
4 2 4.15871 6.14569 5.68526 -4.07001 -2.39675 7.09408
2 1 4.68508 5.22498 5.54143 15.6167 5.3956 -2.38863
ITEM: TIMESTEP
96400
ITEM: NUMBER OF ATOMS
6
ITEM: BOX BOUNDS pp pp pp
0.0000000000000000e+00 1.0000000000000000e+01
0.0000000000000000e+00 1.0000000000000000e+01
0.0000000000000000e+00 1.0000000000000000e+01
ITEM: ATOMS id type x y z vx vy vz
1 1 4.51431 4.60101 4.72504 -9.79233 7.38873 12.7331
5 2 3.48245 4.83612 4.84661 19.0602 6.57845 -42.3021
3 2 5.27309 6.02981 6.13817 20.6307 -4.41216 -15.8653
6 2 4.79634 3.93512 3.98721 6.70459 -18.5874 23.3589
4 2 6.60608 5.38292 5.06205 4.25436 -11.7177 -17.803
2 1 5.47264 5.38352 5.27225 5.54179 -5.02732 -8.31792
ITEM: TIMESTEP
96500
ITEM: NUMBER OF ATOMS
6
ITEM: BOX BOUNDS pp pp pp
0.0000000000000000e+00 1.0000000000000000e+01
0.0000000000000000e+00 1.0000000000000000e+01
0.0000000000000000e+00 1.0000000000000000e+01
ITEM: ATOMS id type x y z vx vy vz
1 1 4.4645 5.20687 5.35324 12.1113 6.69567 6.53795
5 2 3.75899 5.94519 4.98653 -28.3428 28.137 -24.8276
3 2 5.97502 5.17348 3.68261 -23.0656 -7.56743 10.2441
6 2 4.29832 4.92714 6.40163 -13.3559 29.176 17.3522
4 2 6.04043 4.02632 5.14294 1.90845 15.3284 -17.1762
2 1 5.5296 4.78704 4.62897 -6.83648 -12.1567 -5.32888
ITEM: TIMESTEP
96600
ITEM: NUMBER OF ATOMS
6
ITEM: BOX BOUNDS pp pp pp
0.0000000000000000e+00 1.0000000000000000e+01
0.0000000000000000e+00 1.0000000000000000e+01
0.0000000000000000e+00 1.0000000000000000e+01
ITEM: ATOMS id type x y z vx vy vz
1 1 5.24384 5.59552 5.16841 8.9924 -1.07974 -7.03297
5 2 4.50836 6.45517 5.49214 9.46829 -13.4561 8.59279
3 2 3.74817 4.33341 4.875 -17.4664 -5.05051 23.3615
6 2 6.27447 5.9821 4.9017 12.7402 5.60909 -29.0373
4 2 5.30185 3.42432 4.72585 -17.2501 -11.2589 -8.25873
2 1 4.77039 4.38808 4.83218 -7.94272 3.10695 7.48125
ITEM: TIMESTEP
96700
ITEM: NUMBER OF ATOMS
6
ITEM: BOX BOUNDS pp pp pp
0.0000000000000000e+00 1.0000000000000000e+01
0.0000000000000000e+00 1.0000000000000000e+01
0.0000000000000000e+00 1.0000000000000000e+01
ITEM: ATOMS id type x y z vx vy vz
1 1 5.50886 5.09015 4.5626 1.36172 -14.3158 -3.33917
5 2 6.55884 4.97173 4.81005 -18.5355 4.34151 -44.181
3 2 4.59688 4.73732 6.58055 4.86021 -10.539 13.1371
6 2 5.17964 5.29811 3.51181 -23.8588 4.24248 45.9524
4 2 3.51071 4.80496 5.07714 -20.7163 26.8928 3.17528
2 1 4.50426 4.92558 5.43926 3.52666 12.223 1.82159
ITEM: TIMESTEP
96800
ITEM: NUMBER OF ATOMS
6
ITEM: BOX BOUNDS pp pp pp
0.0000000000000000e+00 1.0000000000000000e+01
0.0000000000000000e+00 1.0000000000000000e+01
0.0000000000000000e+00 1.0000000000000000e+01
ITEM: ATOMS id type x y z vx vy vz
1 1 4.78798 4.54672 4.54421 -8.21446 4.46932 2.975
5 2 4.21804 3.70868 4.84163 -12.9897 0.581895 31.3201
3 2 5.41608 5.21976 6.49482 -24.6316 -1.22833 0.661318
6 2 4.70822 4.76678 3.54393 -26.8164 -30.4598 -5.82131
4 2 5.58289 6.47049 5.02743 30.278 -24.8691 -10.0769
2 1 5.2185 5.43934 5.46368 11.0812 0.228142 -4.32471
ITEM: TIMESTEP
96900
ITEM: NUMBER OF ATOMS
6
ITEM: BOX BOUNDS pp pp pp
0.0000000000000000e+00 1.0000000000000000e+01
0.0000000000000000e+00 1.0000000000000000e+01
0.0000000000000000e+00 1.0000000000000000e+01
ITEM: ATOMS id type x y z vx vy vz
1 1 4.35403 4.98207 5.14137 6.26548 9.11901 13.6453
5 2 3.75956 5.89834 5.20934 -4.47931 19.6497 -23.4473
3 2 6.10191 6.03028 4.89286 2.20044 -31.3263 -47.3463
6 2 3.70643 4.04023 5.10932 -17.5139 -25.6498 -17.1268
4 2 6.27728 4.20649 4.60921 -15.7717 -20.6431 25.2895
2 1 5.65916 5.00318 4.87383 -3.28091 -4.25419 -8.38932
ITEM: TIMESTEP
97000
ITEM: NUMBER OF ATOMS
6
ITEM: BOX BOUNDS pp pp pp
0.0000000000000000e+00 1.0000000000000000e+01
0.0000000000000000e+00 1.0000000000000000e+01
0.0000000000000000e+00 1.0000000000000000e+01
ITEM: ATOMS id type x y z vx vy vz
3 2 4.53687 4.10087 3.76271 -55.843 -23.7402 14.2955
2 1 5.03072 4.44407 4.64448 -7.68014 2.46355 9.43326
5 2 4.53526 6.52284 4.87552 11.5444 5.87063 -11.2924
4 2 5.61527 3.60455 5.07343 7.31946 7.728 -19.4933
1 1 4.94317 5.56021 5.35891 11.2194 0.501096 -6.64414
6 2 5.62618 5.7204 6.24972 -5.19478 -25.1854 -16.7453
ITEM: TIMESTEP
97100
ITEM: NUMBER OF ATOMS
6
ITEM: BOX BOUNDS pp pp pp
0.0000000000000000e+00 1.0000000000000000e+01
0.0000000000000000e+00 1.0000000000000000e+01
0.0000000000000000e+00 1.0000000000000000e+01
ITEM: ATOMS id type x y z vx vy vz
3 2 4.07052 5.02316 6.24063 46.4988 -10.3967 16.1022
2 1 4.50389 4.6325 5.27883 -0.797083 13.9388 6.1253
5 2 5.76089 6.28873 5.12734 0.259744 -43.168 -34.9377
4 2 3.92259 3.83477 4.78125 -7.79446 13.8562 -10.6013
1 1 5.52101 5.34226 4.73155 -2.42833 -12.2762 -2.90036
6 2 5.95166 5.15373 3.72879 -0.529838 19.8972 -8.99178
ITEM: TIMESTEP
97200
ITEM: NUMBER OF ATOMS
6
ITEM: BOX BOUNDS pp pp pp
0.0000000000000000e+00 1.0000000000000000e+01
0.0000000000000000e+00 1.0000000000000000e+01
0.0000000000000000e+00 1.0000000000000000e+01
ITEM: ATOMS id type x y z vx vy vz
3 2 5.35532 4.92442 6.43758 6.4605 11.5601 -3.1492
2 1 4.87269 5.37647 5.5776 5.38068 6.95895 -5.08842
5 2 5.65954 3.6735 4.4032 9.61967 -26.4801 -10.7066
4 2 4.56102 6.40161 5.53809 58.8314 -8.70065 2.84015
1 1 5.10848 4.63337 4.43118 -11.2324 -7.22111 4.52074
6 2 4.6509 4.88273 3.51831 -5.18256 26.7445 17.7801
ITEM: TIMESTEP
97300
ITEM: NUMBER OF ATOMS
6
ITEM: BOX BOUNDS pp pp pp
0.0000000000000000e+00 1.0000000000000000e+01
0.0000000000000000e+00 1.0000000000000000e+01
0.0000000000000000e+00 1.0000000000000000e+01
ITEM: ATOMS id type x y z vx vy vz
3 2 5.97907 5.90976 5.8408 21.3521 -10.6797 9.63068
2 1 5.62634 5.24251 5.10394 -1.26542 -0.883397 -11.2751
5 2 3.64014 5.08862 5.64707 20.0741 24.1538 9.74994
4 2 6.36704 4.89074 4.37702 35.9646 -53.0248 12.8719
1 1 4.36742 4.75298 4.913 -4.53277 6.07016 7.7679
6 2 4.09043 4.16414 3.93509 -8.29909 -22.2552 9.53907
ITEM: TIMESTEP
97400
ITEM: NUMBER OF ATOMS
6
ITEM: BOX BOUNDS pp pp pp
0.0000000000000000e+00 1.0000000000000000e+01
0.0000000000000000e+00 1.0000000000000000e+01
0.0000000000000000e+00 1.0000000000000000e+01
ITEM: ATOMS id type x y z vx vy vz
3 2 5.27001 4.77122 3.49531 -17.0089 -0.847062 -22.9746
2 1 5.38322 4.59613 4.63433 -8.85632 -5.45735 -5.01029
5 2 4.29602 6.37765 4.90282 7.31352 -24.6255 -5.98436
4 2 5.7206 3.57207 4.9213 -10.7148 -7.75227 27.8029
1 1 4.64575 5.41269 5.38988 8.81738 3.75926 5.91472
6 2 4.37053 5.17358 6.39386 20.8742 53.4594 -9.62113
ITEM: TIMESTEP
97500
ITEM: NUMBER OF ATOMS
6
ITEM: BOX BOUNDS pp pp pp
0.0000000000000000e+00 1.0000000000000000e+01
0.0000000000000000e+00 1.0000000000000000e+01
0.0000000000000000e+00 1.0000000000000000e+01
ITEM: ATOMS id type x y z vx vy vz
3 2 3.61966 4.59385 5.55337 43.3306 7.03516 30.5486
2 1 4.58322 4.47941 5.00873 -5.57458 2.35544 2.01338
5 2 5.18876 6.48535 5.22482 33.0331 6.17085 8.29037
4 2 5.04293 3.44405 4.87474 -22.4757 15.4077 28.3558
1 1 5.39253 5.53217 4.96035 1.77853 -2.30605 -4.63238
6 2 6.44009 5.33832 4.71722 -8.65404 -29.2023 -35.9865
ITEM: TIMESTEP
97600
ITEM: NUMBER OF ATOMS
6
ITEM: BOX BOUNDS pp pp pp
0.0000000000000000e+00 1.0000000000000000e+01
0.0000000000000000e+00 1.0000000000000000e+01
0.0000000000000000e+00 1.0000000000000000e+01
ITEM: ATOMS id type x y z vx vy vz
3 2 4.99655 5.1227 6.55505 8.48991 -20.7283 -9.2161
2 1 4.63117 5.09526 5.54857 8.29183 13.796 -0.500528
5 2 6.42621 4.47576 4.56586 -5.80573 -57.8225 20.112
4 2 3.68306 5.49289 5.35737 5.01435 -12.0728 28.2058
1 1 5.36834 4.90392 4.45418 -6.88446 -6.48498 -0.306483
6 2 4.90239 4.91799 3.49067 -24.4689 3.50473 -29.4853
ITEM: TIMESTEP
97700
ITEM: NUMBER OF ATOMS
6
ITEM: BOX BOUNDS pp pp pp
0.0000000000000000e+00 1.0000000000000000e+01
0.0000000000000000e+00 1.0000000000000000e+01
0.0000000000000000e+00 1.0000000000000000e+01
ITEM: ATOMS id type x y z vx vy vz
3 2 5.57358 5.26915 6.35356 12.919 4.00645 19.098
2 1 5.43111 5.41972 5.28621 2.00564 -4.96539 -6.62829
5 2 3.98202 3.88455 5.3561 -47.053 46.8008 11.6417
4 2 6.24325 5.98614 4.80896 13.6657 -15.3643 -38.6244
1 1 4.54416 4.60206 4.71049 1.76772 1.72983 6.37575
6 2 4.49817 4.60018 3.52244 -24.4954 3.11223 10.894
ITEM: TIMESTEP
97800
ITEM: NUMBER OF ATOMS
6
ITEM: BOX BOUNDS pp pp pp
0.0000000000000000e+00 1.0000000000000000e+01
0.0000000000000000e+00 1.0000000000000000e+01
0.0000000000000000e+00 1.0000000000000000e+01
ITEM: ATOMS id type x y z vx vy vz
3 2 6.28768 5.62797 4.26859 -14.5608 -27.8004 -1.28993
2 1 5.60562 4.84061 4.72486 -4.5215 -8.4487 -6.59155
5 2 4.06694 6.21835 5.46023 -14.6571 -15.0516 -14.1265
4 2 5.84083 3.74982 4.80696 -14.2964 -6.64401 9.24326
1 1 4.38563 5.15344 5.23858 4.58638 9.7995 6.27226
6 2 3.91128 4.47435 5.90163 42.7412 33.3998 9.97779
ITEM: TIMESTEP
97900
ITEM: NUMBER OF ATOMS
6
ITEM: BOX BOUNDS pp pp pp
0.0000000000000000e+00 1.0000000000000000e+01
0.0000000000000000e+00 1.0000000000000000e+01
0.0000000000000000e+00 1.0000000000000000e+01
ITEM: ATOMS id type x y z vx vy vz
3 2 3.91727 4.22443 4.21083 -11.8761 -9.12623 10.519
2 1 4.79781 4.3745 4.78435 -6.82861 0.825704 4.42203
5 2 4.58326 6.42822 4.95477 -7.21328 -12.9641 -31.4652
4 2 5.43215 3.56098 4.99799 -41.6597 3.12721 -8.71906
1 1 5.18973 5.62259 5.2326 8.69366 0.13739 3.38076
6 2 6.21824 5.82073 5.63621 38.525 7.48681 -63.3135
ITEM: TIMESTEP
98000
ITEM: NUMBER OF ATOMS
6
ITEM: BOX BOUNDS pp pp pp
0.0000000000000000e+00 1.0000000000000000e+01
0.0000000000000000e+00 1.0000000000000000e+01
0.0000000000000000e+00 1.0000000000000000e+01
ITEM: ATOMS id type x y z vx vy vz
6 2 5.48597 4.84121 3.54876 -31.9565 9.08819 -22.6421
1 1 5.4951 5.19826 4.58159 3.01191 -8.2866 -4.93134
2 1 4.49724 4.81577 5.39512 1.86207 6.69665 7.36629
4 2 3.56001 4.28155 5.24743 -59.3717 6.16254 -2.9251
3 2 4.58745 5.18891 6.39327 11.5492 15.7434 15.8021
5 2 6.46016 5.5208 5.08993 21.7003 -12.0481 -19.2501
ITEM: TIMESTEP
98100
ITEM: NUMBER OF ATOMS
6
ITEM: BOX BOUNDS pp pp pp
0.0000000000000000e+00 1.0000000000000000e+01
0.0000000000000000e+00 1.0000000000000000e+01
0.0000000000000000e+00 1.0000000000000000e+01
ITEM: ATOMS id type x y z vx vy vz
6 2 4.54696 4.91236 3.51261 2.97616 -10.407 24.1047
1 1 4.87491 4.56576 4.51804 -8.09206 -6.90217 3.03747
2 1 5.15779 5.42381 5.4841 5.19678 6.49107 -3.83216
4 2 4.94964 6.5325 5.21308 40.429 5.94811 -13.9889
3 2 5.47121 5.17039 6.57734 32.8607 -9.29446 11.7565
5 2 4.64484 3.50868 4.67327 -41.7655 18.6521 -12.4026
ITEM: TIMESTEP
98200
ITEM: NUMBER OF ATOMS
6
ITEM: BOX BOUNDS pp pp pp
0.0000000000000000e+00 1.0000000000000000e+01
0.0000000000000000e+00 1.0000000000000000e+01
0.0000000000000000e+00 1.0000000000000000e+01
ITEM: ATOMS id type x y z vx vy vz
6 2 3.76171 4.10691 4.7551 -44.105 16.4013 14.816
1 1 4.34188 4.93042 5.06663 0.0638823 -0.530045 6.39463
2 1 5.66373 5.05259 4.93722 0.427218 -1.08434 -2.66171
4 2 6.19701 4.44362 4.19366 1.45802 -9.22207 14.0103
3 2 6.16894 5.96805 5.41494 -1.47446 -28.8554 -59.8605
5 2 3.80787 5.68343 5.5921 38.2695 40.9134 -13.4475
ITEM: TIMESTEP
98300
ITEM: NUMBER OF ATOMS
6
ITEM: BOX BOUNDS pp pp pp
0.0000000000000000e+00 1.0000000000000000e+01
0.0000000000000000e+00 1.0000000000000000e+01