6
energy=-373.405714 Lattice="12.718 0.0 0.0 0.0 12.718 0.0 0.0 0.0 12.718" Properties=species:S:1:pos:R:3:Z:I:1:force:R:3
C 6.668318 7.418054 3.540251 6 0.20262056 0.70886908 -0.80950264
H 6.972036 7.657942 2.486691 1 -0.17118571 0.09966734 0.98280386
H 6.598878 8.235160 4.284306 1 0.11600157 -0.32199079 -0.46103564
C 6.359102 6.161149 3.842046 6 0.29575575 0.54307651 -0.84006948
H 6.043098 5.930527 4.825667 1 -0.36102017 -0.64437651 1.00387663
H 6.423271 5.407728 3.064247 1 -0.08140530 -0.37949715 0.12219279
6
energy=-373.424677 Lattice="12.718 0.0 0.0 0.0 12.718 0.0 0.0 0.0 12.718" Properties=species:S:1:pos:R:3:Z:I:1:force:R:3
C 6.554948 5.966099 3.015369 6 0.14307428 0.51095775 -0.47822604
H 6.620475 4.882690 2.995323 1 -0.08857560 -0.20550791 0.24339983
H 6.651970 6.424821 2.022165 1 -0.05804732 0.11366701 0.25055881
C 6.414997 6.669026 4.140144 6 -0.00800076 0.30935021 0.58043364
H 6.379318 7.768726 4.268770 1 0.01744958 -0.45892013 -0.64926263
H 6.338359 6.169257 5.104918 1 -0.00527334 -0.26874218 0.06059272
6
energy=-373.429841 Lattice="12.718 0.0 0.0 0.0 12.718 0.0 0.0 0.0 12.718" Properties=species:S:1:pos:R:3:Z:I:1:force:R:3
C 6.648381 7.426952 3.813249 6 -0.37907292 -1.14882422 -0.05136348
H 6.828213 8.146086 3.031020 1 0.15170137 0.22585358 -0.38540967
H 6.625305 7.809445 4.820354 1 0.10141209 0.16835236 0.46301024
C 6.388999 6.128682 3.558733 6 -0.36742736 0.17833441 0.39638366
H 6.124723 5.408551 4.383203 1 0.36545327 0.63378818 -0.83349876
H 6.327660 5.770376 2.517823 1 0.12619292 -0.06061072 0.41232914
6
energy=-373.408441 Lattice="12.718 0.0 0.0 0.0 12.718 0.0 0.0 0.0 12.718" Properties=species:S:1:pos:R:3:Z:I:1:force:R:3
C 6.296555 6.937222 6.054457 6 0.28908168 -1.54608463 -0.29299078
H 6.486360 7.222236 5.037526 1 0.14835276 -0.10769947 -0.74153394
H 6.112153 7.765712 6.685002 1 -0.29614810 0.81330016 0.98390018
C 6.320940 5.666550 6.504561 6 -0.18288321 0.83622208 -0.13211417
H 6.098546 5.526967 7.564891 1 0.09392607 -0.38088401 -0.04214195
H 6.512239 4.783134 5.873509 1 -0.05248551 0.39633481 0.22647578
6
energy=-373.436073 Lattice="12.718 0.0 0.0 0.0 12.718 0.0 0.0 0.0 12.718" Properties=species:S:1:pos:R:3:Z:I:1:force:R:3
C 6.429394 6.227155 3.443311 6 0.00764698 0.75428713 0.21033182
H 6.388176 5.335603 4.081535 1 0.10645300 0.31275950 0.06687084
H 6.264752 6.028487 2.391096 1 0.00469072 0.04371907 -0.33646560
C 6.624444 7.477452 3.917935 6 -0.15623628 -0.80491167 0.48998216
H 6.629722 8.398085 3.310600 1 0.02832998 -0.48864262 0.09655425
H 6.752203 7.595233 5.012670 1 0.00766446 0.17327397 -0.53039994
6
energy=-373.343926 Lattice="12.718 0.0 0.0 0.0 12.718 0.0 0.0 0.0 12.718" Properties=species:S:1:pos:R:3:Z:I:1:force:R:3
C 6.470014 6.078711 5.377490 6 -0.44853132 1.09712187 0.82105204
H 6.648334 5.104738 5.030856 1 0.31988711 -1.65582556 -0.00133697
H 6.488787 6.796707 4.595446 1 0.16816621 0.88467609 -0.80310059
C 6.146659 6.476975 6.613124 6 -0.38649365 -1.06454494 -0.15505409
H 5.881183 7.522969 6.753787 1 0.09468968 0.01855104 0.42041989
H 5.985064 5.726407 7.419634 1 0.25194926 0.72163307 -0.28456630
6
energy=-373.392955 Lattice="12.718 0.0 0.0 0.0 12.718 0.0 0.0 0.0 12.718" Properties=species:S:1:pos:R:3:Z:I:1:force:R:3
C 6.181278 5.886656 5.557668 6 0.02530327 0.67156028 -0.73523524
H 6.025825 6.298831 6.547305 1 0.11684181 0.27600195 0.20356570
H 5.987943 4.827663 5.465942 1 0.08401857 -0.40127339 -0.05156248
C 6.490565 6.617291 4.470794 6 -0.39112112 -0.59528691 -1.05785133
H 6.536166 6.131612 3.449428 1 0.07821661 0.30049635 1.10756570
H 6.597602 7.708996 4.395665 1 0.08755024 -0.25552310 0.54128548
6
energy=-373.392997 Lattice="12.718 0.0 0.0 0.0 12.718 0.0 0.0 0.0 12.718" Properties=species:S:1:pos:R:3:Z:I:1:force:R:3
C 6.406407 6.844113 4.499928 6 0.14603774 0.65454060 1.00074914
H 6.629462 7.671893 3.850691 1 -0.00793237 0.32525301 -0.50881499
H 6.302276 7.103362 5.557874 1 -0.14079217 0.06214618 -0.06345333
C 6.365286 5.580291 4.127123 6 0.34321989 -1.10540700 -0.35471119
H 6.224750 4.810827 4.924098 1 0.00590326 0.23491312 -0.93952085
H 6.578721 5.309228 3.064080 1 -0.34650062 -0.15665691 0.86908388
6
energy=-373.404762 Lattice="12.718 0.0 0.0 0.0 12.718 0.0 0.0 0.0 12.718" Properties=species:S:1:pos:R:3:Z:I:1:force:R:3
C 6.590860 6.133155 2.934207 6 -0.09181159 0.33080917 0.64496837
H 6.598200 5.079509 2.656511 1 -0.04111351 -0.17543164 0.20272700
H 6.774051 6.781686 2.059419 1 -0.13619452 0.16324048 0.61628718
C 6.383114 6.526134 4.218809 6 0.25772448 -0.34594526 -0.64326733
H 6.386328 7.593451 4.531562 1 -0.03097307 -0.66948695 -0.21866271
H 6.242665 5.753748 5.017070 1 0.04086000 0.69340285 -0.59095460
6
energy=-373.396402 Lattice="12.718 0.0 0.0 0.0 12.718 0.0 0.0 0.0 12.718" Properties=species:S:1:pos:R:3:Z:I:1:force:R:3
C 6.181197 5.843783 5.491634 6 0.22642796 -0.03586537 -0.39082339
H 6.097439 6.198685 6.503537 1 -0.11778849 0.33348415 0.45339894
H 6.093262 4.785105 5.379071 1 -0.20560047 -0.84870376 -0.20435194
C 6.466750 6.656669 4.476686 6 0.50793876 0.30995956 -0.21983719
H 6.658468 6.335219 3.420916 1 -0.31160610 0.23396644 0.92543325
H 6.638030 7.704349 4.754733 1 -0.09877054 0.01177052 -0.55010128
6
energy=-373.408595 Lattice="12.718 0.0 0.0 0.0 12.718 0.0 0.0 0.0 12.718" Properties=species:S:1:pos:R:3:Z:I:1:force:R:3
C 6.568425 6.291293 3.114169 6 -0.20970344 1.12183225 1.37185370
H 6.784088 5.224050 3.078361 1 -0.00034504 0.00574436 0.06049090
H 6.401447 6.820580 2.175407 1 0.06700351 -0.17494775 -0.12918723
C 6.477714 7.005772 4.270490 6 0.00172213 -0.33621517 -1.39422025
H 6.262566 8.073633 4.291197 1 -0.05613494 0.11749641 -0.39889563
H 6.597779 6.627273 5.265833 1 0.19712456 -0.73509126 0.49183439
6
energy=-373.436906 Lattice="12.718 0.0 0.0 0.0 12.718 0.0 0.0 0.0 12.718" Properties=species:S:1:pos:R:3:Z:I:1:force:R:3
C 6.392725 6.645469 4.232340 6 -0.05714538 0.80302345 0.27679694
H 6.443467 7.747240 4.273765 1 0.06228862 -0.34989191 -0.31206170
H 6.208786 6.206229 5.206415 1 -0.05640593 -0.33657050 0.15267633
C 6.524781 5.924665 3.121094 6 -0.05892098 0.20528731 1.00274843
H 6.458262 4.855276 3.182111 1 -0.01828518 -0.64181260 -0.18650024
H 6.723860 6.381411 2.181674 1 0.12847246 0.32196560 -0.92183473
6
energy=-373.375591 Lattice="12.718 0.0 0.0 0.0 12.718 0.0 0.0 0.0 12.718" Properties=species:S:1:pos:R:3:Z:I:1:force:R:3
C 6.245048 6.963721 6.293192 6 -0.49271422 0.82111786 0.28778430
H 6.245505 7.552026 5.366653 1 0.07130188 0.27700880 0.41163391
H 6.010513 7.431337 7.293990 1 0.38798746 -0.16678038 -1.20208826
C 6.386398 5.650330 6.222574 6 -0.37544047 -0.65476840 1.01666274
H 6.270006 5.107995 7.168260 1 0.21630706 -0.30831354 -0.24202994
H 6.496136 5.061398 5.321135 1 0.19378213 0.03204728 -0.27989975
6
energy=-373.366190 Lattice="12.718 0.0 0.0 0.0 12.718 0.0 0.0 0.0 12.718" Properties=species:S:1:pos:R:3:Z:I:1:force:R:3
C 6.359535 5.949902 3.864598 6 0.66597122 0.51302544 0.73143926
H 6.483248 5.683889 4.921090 1 -0.06555752 0.37965296 0.08242140
H 6.102604 5.047241 3.313502 1 -0.19447118 0.37023603 -0.71824744
C 6.655976 7.190676 3.415036 6 -0.06763909 -1.35838573 0.85932037
H 6.622363 7.413377 2.376784 1 -0.14007534 0.28206205 -1.05131044
H 7.019954 7.992607 4.064244 1 -0.19829699 -0.18686894 0.09409319
6
energy=-373.411715 Lattice="12.718 0.0 0.0 0.0 12.718 0.0 0.0 0.0 12.718" Properties=species:S:1:pos:R:3:Z:I:1:force:R:3
C 6.530995 5.964871 3.277135 6 -0.45446955 -0.10290231 0.38943653
H 6.340998 4.912603 3.054779 1 0.07722725 -0.08802949 0.42078087
H 6.783968 6.530822 2.398135 1 0.28763414 0.45493338 -0.36416308
C 6.347663 6.564099 4.462028 6 -0.34469828 0.25543311 0.44437488
H 6.462346 7.670741 4.560411 1 0.05492909 -0.79236520 -0.04695146
H 5.998792 6.041917 5.390572 1 0.37934855 0.26590471 -0.83397390
6
energy=-373.442266 Lattice="12.718 0.0 0.0 0.0 12.718 0.0 0.0 0.0 12.718" Properties=species:S:1:pos:R:3:Z:I:1:force:R:3
C 6.184228 5.765280 6.210361 6 -0.12271781 0.12595432 0.62841611
H 5.923101 6.036878 7.236328 1 -0.03453560 -0.32146012 0.02520506
H 6.314069 4.723161 5.934674 1 -0.04938681 -0.19341497 0.18624519
C 6.362549 6.717794 5.311634 6 0.39815258 -0.39892545 -1.09960453
H 6.655199 6.429198 4.296431 1 -0.06855851 0.18990233 -0.01203020
H 6.273829 7.770156 5.496563 1 -0.12217325 0.59152847 0.26839045
6
energy=-373.429875 Lattice="12.718 0.0 0.0 0.0 12.718 0.0 0.0 0.0 12.718" Properties=species:S:1:pos:R:3:Z:I:1:force:R:3
C 6.344414 6.691959 4.720425 6 0.21454689 -0.13890549 -0.61765295
H 6.552744 7.740231 4.457865 1 -0.15243722 -0.27859980 0.37415388
H 6.073162 6.388450 5.716656 1 -0.12437875 0.30963920 0.61491216
C 6.451899 5.743999 3.789330 6 0.10208778 -0.32631848 -0.97002855
H 6.263608 4.664048 3.959574 1 0.07568973 0.61764781 0.10962472
H 6.728465 6.008429 2.747184 1 -0.11486206 -0.17439137 0.50192906
6
energy=-373.406241 Lattice="12.718 0.0 0.0 0.0 12.718 0.0 0.0 0.0 12.718" Properties=species:S:1:pos:R:3:Z:I:1:force:R:3
C 6.214707 6.612946 5.767469 6 0.15643477 -0.68974828 -0.79860475
H 6.403663 7.662009 5.736316 1 0.13640072 0.96391498 -0.02537578
H 5.903050 6.246903 6.745409 1 -0.09029155 -0.37940254 -0.16551746
C 6.404835 5.882803 4.651902 6 0.18739345 -0.67886017 0.18899473
H 6.277835 4.778667 4.615377 1 -0.09737032 0.59690671 0.23281253
H 6.789828 6.283570 3.693711 1 -0.29572233 0.18387617 0.57058733
6
energy=-373.390201 Lattice="12.718 0.0 0.0 0.0 12.718 0.0 0.0 0.0 12.718" Properties=species:S:1:pos:R:3:Z:I:1:force:R:3
C 6.483649 6.856543 4.239437 6 -0.31005109 -0.13929424 -0.13207612
H 6.553996 7.334488 3.257958 1 0.09489743 -0.61538370 -0.17682723
H 6.457242 7.581029 5.020051 1 0.17925281 0.65463984 0.85847602
C 6.304268 5.566497 4.547353 6 -0.23809409 0.53117281 -0.71252416
H 6.142770 5.273474 5.582079 1 0.11040325 -0.18664782 0.03712316
H 6.194558 4.824668 3.756428 1 0.16280751 -0.23367179 0.12949165
6
energy=-373.445484 Lattice="12.718 0.0 0.0 0.0 12.718 0.0 0.0 0.0 12.718" Properties=species:S:1:pos:R:3:Z:I:1:force:R:3
C 6.430649 6.421639 4.919297 6 -0.00462490 0.10630902 -0.60670622
H 6.550280 5.731990 4.069536 1 0.02402441 0.13761582 0.34884084
H 6.529040 7.482197 4.711117 1 0.14266907 0.19166714 -0.26024879
C 6.115927 6.048069 6.152073 6 -0.13243453 0.00356921 -0.13229878
H 5.958955 6.807541 6.911645 1 0.00862297 -0.07705859 0.31089545
H 5.957129 5.007448 6.387516 1 -0.03663465 -0.35908104 0.34011554
6
energy=-373.383097 Lattice="12.718 0.0 0.0 0.0 12.718 0.0 0.0 0.0 12.718" Properties=species:S:1:pos:R:3:Z:I:1:force:R:3
C 6.452858 5.792988 5.576068 6 -0.07552415 0.12570184 0.13776752
H 6.547495 4.710719 5.845499 1 -0.07170195 0.88562894 -0.13281917
H 6.615839 6.054958 4.498379 1 -0.13256052 -0.26398923 0.89258173
C 6.150324 6.761740 6.469034 6 0.21585763 0.34763037 -1.41309628
H 6.056140 7.817454 6.159238 1 0.10930333 -0.38013325 -0.22113611
H 5.970797 6.675370 7.519770 1 -0.04579858 -0.71547579 0.73702730
6
energy=-373.419207 Lattice="12.718 0.0 0.0 0.0 12.718 0.0 0.0 0.0 12.718" Properties=species:S:1:pos:R:3:Z:I:1:force:R:3
C 6.423546 6.171063 3.206302 6 0.06784992 0.89040143 0.74452310
H 6.262333 5.115924 3.458754 1 0.04596673 0.24849678 -0.02121779
H 6.455057 6.442726 2.156650 1 0.02525545 -0.08666681 -0.26532055
C 6.558076 7.125911 4.152442 6 -0.17223472 -1.10666736 0.16641940
H 6.714510 8.183268 4.017972 1 0.05895389 0.40293021 -0.71153377
H 6.512290 6.889862 5.215400 1 -0.02671841 -0.34405499 0.09470614
6
energy=-373.416268 Lattice="12.718 0.0 0.0 0.0 12.718 0.0 0.0 0.0 12.718" Properties=species:S:1:pos:R:3:Z:I:1:force:R:3
C 6.170736 6.151181 5.730858 6 -0.01966792 0.27347250 -0.31326549
H 6.157303 6.976563 6.424318 1 0.13653802 0.59614155 0.17398925
H 5.862718 5.240747 6.230611 1 0.05024659 -0.58658835 -0.39600108
C 6.481972 6.337002 4.437611 6 -0.23371499 0.42072534 0.84951932
H 6.461055 5.534554 3.716418 1 0.06535235 -0.26025033 -0.29833817
H 6.724839 7.354546 4.089014 1 0.00098319 -0.43791369 -0.01819314
6
energy=-373.423843 Lattice="12.718 0.0 0.0 0.0 12.718 0.0 0.0 0.0 12.718" Properties=species:S:1:pos:R:3:Z:I:1:force:R:3
C 6.361285 6.093043 4.101842 6 -0.34969393 0.43399738 1.07752079
H 6.293527 6.408419 5.162490 1 0.11250693 -0.42282850 -0.45146393
H 6.064565 5.094610 3.813111 1 -0.01142599 -0.40543035 0.20966898
C 6.672822 6.966482 3.162154 6 0.17880287 0.59217999 -1.42187660
H 6.649461 6.640358 2.103967 1 0.12869460 0.22927932 0.38718579
H 6.924053 8.029085 3.315018 1 -0.05744774 -0.42695153 0.18698053
6
energy=-373.374045 Lattice="12.718 0.0 0.0 0.0 12.718 0.0 0.0 0.0 12.718" Properties=species:S:1:pos:R:3:Z:I:1:force:R:3
C 6.486769 6.937485 4.004586 6 0.28738423 0.60430481 0.76005258
H 6.351050 7.892568 3.533110 1 -0.13713760 0.90964512 0.37022986
H 6.679200 6.832900 5.085444 1 -0.21987781 0.19952649 -0.43206134
C 6.513153 5.928676 3.172289 6 0.22520412 -2.35460870 -1.28218847
H 6.696455 4.880776 3.501251 1 -0.14302337 0.58957597 -0.13900679
H 6.389390 6.041542 2.071278 1 -0.01147073 0.06067808 0.71396243
6
energy=-373.414811 Lattice="12.718 0.0 0.0 0.0 12.718 0.0 0.0 0.0 12.718" Properties=species:S:1:pos:R:3:Z:I:1:force:R:3
C 6.170742 6.057131 5.670377 6 -0.32247725 -0.99401748 0.82709928
H 6.156495 6.805489 6.474316 1 -0.11262777 -0.38232588 -0.01604421
H 5.943511 4.991397 5.900978 1 0.10045359 0.73603434 0.08815805
C 6.473019 6.435761 4.442904 6 0.23587523 0.29997905 -0.01265395
H 6.559134 5.773761 3.598938 1 -0.06844590 -0.30396992 -0.36272378
H 6.705084 7.474583 4.312564 1 0.16731414 0.64470715 -0.52347749
6
energy=-373.381338 Lattice="12.718 0.0 0.0 0.0 12.718 0.0 0.0 0.0 12.718" Properties=species:S:1:pos:R:3:Z:I:1:force:R:3
C 6.447708 5.850773 5.916510 6 0.77309014 -1.92766540 -0.92522756
H 6.715651 4.870134 6.338314 1 -0.07545885 0.02340734 -0.36390906
H 6.509312 5.928454 4.813114 1 -0.18969356 0.19421921 0.59743996
C 6.165764 6.802448 6.768883 6 -0.33769922 1.57574695 -0.58756383
H 5.934723 7.800204 6.366811 1 -0.04306755 -0.07313148 0.57268844
H 6.192254 6.598161 7.819183 1 -0.12623149 0.20126353 0.72097795
6
energy=-373.386626 Lattice="12.718 0.0 0.0 0.0 12.718 0.0 0.0 0.0 12.718" Properties=species:S:1:pos:R:3:Z:I:1:force:R:3
C 6.453404 6.704163 4.341609 6 -0.45221829 1.32066454 1.65763767
H 6.202202 7.686316 4.818370 1 0.18375842 -0.87592302 0.05174760
H 6.578210 5.844394 5.008434 1 -0.00331673 0.04833472 -0.27758164
C 6.564533 6.723664 3.031874 6 0.24012578 -0.43546343 -0.37621025
H 6.819323 5.811797 2.509576 1 0.03784769 -0.08499405 -0.55840750
H 6.431859 7.668624 2.522137 1 -0.00833501 0.02013278 -0.49992926
6
energy=-373.422730 Lattice="12.718 0.0 0.0 0.0 12.718 0.0 0.0 0.0 12.718" Properties=species:S:1:pos:R:3:Z:I:1:force:R:3
C 6.450671 6.293550 3.324972 6 0.11096529 -0.63461351 0.70676951
H 6.498363 5.311837 3.827566 1 -0.05527721 0.30302735 -0.07736661
H 6.302148 6.202000 2.248235 1 -0.00718161 0.47094673 -0.03179171
C 6.591627 7.418212 4.044134 6 0.15163452 -0.74762437 -0.11972865
H 6.589831 8.375403 3.532429 1 -0.04109808 0.33476044 0.22361414
H 6.769372 7.354491 5.139934 1 -0.15952781 0.26523776 -0.70376337
6
energy=-373.377752 Lattice="12.718 0.0 0.0 0.0 12.718 0.0 0.0 0.0 12.718" Properties=species:S:1:pos:R:3:Z:I:1:force:R:3
C 6.503283 6.976390 3.971686 6 -0.00940459 -1.24806013 0.67269466
H 6.306682 7.976347 3.627786 1 -0.03556147 0.38713848 -0.62380612
H 6.610657 6.952312 5.073081 1 0.14408370 -0.33025227 -0.43899510
C 6.518262 5.873048 3.186387 6 -0.45109832 0.79369703 0.00535664
H 6.640037 4.834400 3.581377 1 0.00320617 0.86962793 -0.35812562
H 6.292560 6.031738 2.101230 1 0.35034391 -0.48466718 0.74989620
6
energy=-373.403659 Lattice="12.718 0.0 0.0 0.0 12.718 0.0 0.0 0.0 12.718" Properties=species:S:1:pos:R:3:Z:I:1:force:R:3
C 6.510438 6.581081 3.018631 6 -0.03299036 0.72402471 0.11757715
H 6.618020 5.621337 2.514746 1 -0.00755442 0.07487109 -0.06351761
H 6.460801 7.519737 2.457017 1 0.03464255 -0.38641291 -0.46022008
C 6.441512 6.718662 4.338708 6 -0.07936898 0.71381125 0.07654540
H 6.333885 7.686246 4.839968 1 0.01587657 0.07235912 -0.32644755
H 6.480960 5.917695 5.027502 1 0.06995000 -1.20308688 0.65292389
6
energy=-373.378973 Lattice="12.718 0.0 0.0 0.0 12.718 0.0 0.0 0.0 12.718" Properties=species:S:1:pos:R:3:Z:I:1:force:R:3
C 6.365925 5.639065 5.402645 6 -0.27190824 0.49768160 0.46710293
H 6.150462 4.768286 5.978158 1 -0.07978962 -0.89631960 0.40831924
H 6.686807 5.495471 4.388859 1 0.23514298 -0.05724051 -0.56543433
C 6.181813 6.851294 5.932746 6 0.08799555 -0.53241311 -0.45077230
H 6.393527 7.668240 5.242713 1 -0.15678290 0.58839944 0.60203761
H 5.819492 6.947952 6.968233 1 0.18662880 0.41027894 -0.45564660
6
energy=-373.431704 Lattice="12.718 0.0 0.0 0.0 12.718 0.0 0.0 0.0 12.718" Properties=species:S:1:pos:R:3:Z:I:1:force:R:3
C 6.603553 6.214885 2.914493 6 -0.07383031 -0.07993771 0.96562116
H 6.619118 5.199510 2.514390 1 -0.02036469 0.04160922 -0.12525241
H 6.816590 7.044242 2.219287 1 -0.12488628 -0.32395152 0.27274899
C 6.372470 6.438092 4.229520 6 0.19695384 0.07292836 -0.87517072
H 6.395001 7.467487 4.567767 1 -0.05759892 0.25618747 0.28563228
H 6.173492 5.685672 5.008763 1 0.07724679 0.03176137 -0.52121235
6
energy=-373.385914 Lattice="12.718 0.0 0.0 0.0 12.718 0.0 0.0 0.0 12.718" Properties=species:S:1:pos:R:3:Z:I:1:force:R:3
C 6.396579 5.693102 5.263969 6 -0.33836565 1.29108140 -0.18266364
H 6.217133 4.637653 5.512970 1 0.04747185 0.42327382 0.40958628
H 6.692251 5.845319 4.212192 1 0.11515825 -0.04042137 0.32850546
C 6.159217 6.790401 6.039386 6 -0.33551789 -2.56115585 0.08625183
H 6.272047 7.786819 5.681392 1 0.23801182 0.79122157 -0.38620157
H 5.750221 6.672444 7.057063 1 0.27377486 0.08762069 -0.26323950
6
energy=-373.433850 Lattice="12.718 0.0 0.0 0.0 12.718 0.0 0.0 0.0 12.718" Properties=species:S:1:pos:R:3:Z:I:1:force:R:3
C 6.549484 6.612048 3.051954 6 0.07177754 0.51839956 0.46878906
H 6.803673 5.567789 2.825803 1 -0.15179701 0.26208559 0.00821571
H 6.408438 7.313402 2.218162 1 -0.04263612 -0.33079426 0.05649952
C 6.483508 7.066206 4.315739 6 0.26787983 0.44852053 -0.02565654
H 6.312477 8.127152 4.606756 1 -0.06245985 -0.57915837 -0.53385550
H 6.702733 6.438219 5.175959 1 -0.08683496 -0.32237440 0.02990658
6
energy=-373.441065 Lattice="12.718 0.0 0.0 0.0 12.718 0.0 0.0 0.0 12.718" Properties=species:S:1:pos:R:3:Z:I:1:force:R:3
C 6.605215 7.323119 4.057527 6 -0.37696462 -1.15370161 -0.44258024
H 6.652012 8.285116 3.560055 1 0.13076846 0.28500699 0.12455872
H 6.624057 7.262190 5.146433 1 0.12980481 0.20220095 -0.01489184
C 6.427213 6.209277 3.319765 6 -0.08193906 0.72802278 -0.14302851
H 6.302930 5.212686 3.716784 1 0.07735427 -0.26338194 0.46551964
H 6.333068 6.244187 2.231022 1 0.12290910 0.18811130 0.00955371
6
energy=-373.394758 Lattice="12.718 0.0 0.0 0.0 12.718 0.0 0.0 0.0 12.718" Properties=species:S:1:pos:R:3:Z:I:1:force:R:3
C 6.576209 6.717212 3.314946 6 0.02974511 -0.71930159 -1.44976743
H 6.430760 6.327084 2.291559 1 0.10523224 0.73263380 0.11929464
H 7.032208 7.674399 3.489609 1 0.03810275 0.53994953 -0.03980688
C 6.300496 5.857444 4.270062 6 0.15779540 -0.64915362 1.63415269
H 6.503718 6.089417 5.328360 1 -0.20130981 -0.06378294 -0.24405032
H 5.955060 4.839938 4.067091 1 -0.12991228 0.15204384 -0.02858349
6
energy=-373.448298 Lattice="12.718 0.0 0.0 0.0 12.718 0.0 0.0 0.0 12.718" Properties=species:S:1:pos:R:3:Z:I:1:force:R:3
C 6.423008 6.477367 4.930522 6 0.37951772 0.33533380 -1.06420967
H 6.590345 5.807235 4.060011 1 -0.11547090 0.37400425 0.47840808
H 6.557608 7.558695 4.735396 1 -0.11069276 -0.47301236 0.10967305
C 6.115721 5.998503 6.128951 6 0.02318108 0.29713489 -0.11522870
H 5.964156 6.673486 6.968723 1 -0.04939504 -0.15126788 0.20163531
H 6.018367 4.931681 6.251726 1 -0.12683672 -0.37951515 0.37737291
6
energy=-373.440198 Lattice="12.718 0.0 0.0 0.0 12.718 0.0 0.0 0.0 12.718" Properties=species:S:1:pos:R:3:Z:I:1:force:R:3
C 6.313274 6.496106 4.802538 6 -0.25801707 0.16921882 0.05119996
H 6.480461 7.566368 4.916825 1 0.07013820 0.08289551 0.22313386
H 5.908071 5.957523 5.680585 1 0.31521182 0.15031965 -0.45905486
C 6.505586 5.931416 3.607057 6 -0.37572123 0.05140256 0.81317675
H 6.270900 4.891927 3.483888 1 0.00621128 -0.67624381 -0.29692560
H 6.820625 6.490279 2.742320 1 0.24305221 0.22674626 -0.32535225
6
energy=-373.423844 Lattice="12.718 0.0 0.0 0.0 12.718 0.0 0.0 0.0 12.718" Properties=species:S:1:pos:R:3:Z:I:1:force:R:3
C 6.415892 6.755248 4.321621 6 0.22126621 -1.15615496 0.55832111
H 6.162299 7.566172 4.964923 1 -0.30830994 0.81630733 0.37151336
H 6.546804 5.789901 4.828392 1 -0.08400366 0.14092895 -0.05079064
C 6.621487 6.848740 3.019463 6 0.31778395 0.06529835 -0.09172520
H 6.955473 5.958512 2.489356 1 -0.10268376 0.13373397 -0.39794226
H 6.556321 7.812647 2.525586 1 -0.04320793 0.01030447 -0.38196027
6
energy=-373.395551 Lattice="12.718 0.0 0.0 0.0 12.718 0.0 0.0 0.0 12.718" Properties=species:S:1:pos:R:3:Z:I:1:force:R:3
C 6.416096 6.877969 4.478588 6 0.02109952 -1.22158906 0.42265521
H 6.611444 7.679294 3.765634 1 -0.04094228 -0.12411649 -0.08171692
H 6.301040 7.152174 5.536761 1 -0.02644587 0.17115332 -0.28978822
C 6.366018 5.563944 4.169144 6 -0.00803162 -0.41815372 -0.43074751
H 6.182199 4.740670 4.897195 1 0.08989406 0.84941904 -0.05707133
H 6.494567 5.122963 3.151941 1 -0.03390825 0.74431999 0.43785455
6
energy=-373.446142 Lattice="12.718 0.0 0.0 0.0 12.718 0.0 0.0 0.0 12.718" Properties=species:S:1:pos:R:3:Z:I:1:force:R:3
C 6.338106 6.862886 5.925798 6 0.15041427 0.43874878 -0.49436281
H 6.618495 6.919383 4.846080 1 -0.23088831 -0.33829160 0.77594869
H 6.134190 7.835362 6.384668 1 -0.02761418 -0.05257396 -0.02295534
C 6.270926 5.749019 6.655792 6 0.36801357 -0.39245861 -0.29850529
H 6.047554 5.757191 7.718694 1 -0.16328368 0.16462323 0.14648665
H 6.509892 4.756079 6.255437 1 -0.09311822 0.18890166 -0.10229810
6
energy=-373.369597 Lattice="12.718 0.0 0.0 0.0 12.718 0.0 0.0 0.0 12.718" Properties=species:S:1:pos:R:3:Z:I:1:force:R:3
C 6.343609 5.694011 3.882083 6 0.28925343 0.10869449 0.09511289
H 6.566315 5.527629 4.939589 1 -0.26509327 -0.41743947 -0.14056180
H 6.023539 4.913274 3.191939 1 -0.16487622 -0.34376445 0.47621955
C 6.580191 6.888895 3.356271 6 0.43195850 -0.22465544 0.74845124
H 6.461144 7.023158 2.322058 1 -0.29518599 0.43325690 -1.54880743
H 7.019711 7.703334 3.905394 1 0.00625601 0.43205825 0.37883998
6
energy=-373.405088 Lattice="12.718 0.0 0.0 0.0 12.718 0.0 0.0 0.0 12.718" Properties=species:S:1:pos:R:3:Z:I:1:force:R:3
C 6.274379 6.968281 6.152831 6 -0.34288925 -0.06914730 1.11365253
H 6.356614 7.443187 5.161373 1 0.05723074 -0.22264278 0.42155066
H 6.050035 7.599380 7.054709 1 0.27354603 -0.14589067 -1.00828916
C 6.352617 5.647901 6.383911 6 -0.24350164 0.07326261 -0.46626938
H 6.186619 5.198336 7.362190 1 0.08545222 0.26404837 0.22141225
H 6.489719 4.899562 5.605082 1 0.17033519 0.09940303 -0.28465680
6
energy=-373.344476 Lattice="12.718 0.0 0.0 0.0 12.718 0.0 0.0 0.0 12.718" Properties=species:S:1:pos:R:3:Z:I:1:force:R:3
C 6.683546 7.265376 3.348905 6 -0.05539189 1.28050953 0.52649597
H 6.759855 7.297975 2.270229 1 0.04312000 -0.70232098 -0.41255128
H 6.827487 8.302332 3.711389 1 -0.04673343 -0.58321763 0.48957902
C 6.370519 6.193701 4.085362 6 0.11100592 1.18355317 -0.58543084
H 6.195703 6.180027 5.150370 1 0.13758446 0.17480686 0.34837444
H 6.200857 5.302384 3.544570 1 -0.19162086 -1.35112442 -0.37467942
6
energy=-373.408618 Lattice="12.718 0.0 0.0 0.0 12.718 0.0 0.0 0.0 12.718" Properties=species:S:1:pos:R:3:Z:I:1:force:R:3
C 6.350417 6.818361 5.891206 6 0.16385035 1.88702343 -1.15510954
H 6.647814 6.729733 4.810647 1 -0.26484747 -0.10062842 0.98610413
H 6.147615 7.865862 6.217049 1 0.10267245 -0.66570742 -0.15527572
C 6.265093 5.793725 6.714662 6 0.05098604 -0.81441139 -0.36174008
H 5.967372 5.890237 7.751739 1 -0.00237879 -0.09138376 0.20159417
H 6.475775 4.814559 6.278846 1 -0.04922432 -0.22494700 0.47814377
6
energy=-373.419953 Lattice="12.718 0.0 0.0 0.0 12.718 0.0 0.0 0.0 12.718" Properties=species:S:1:pos:R:3:Z:I:1:force:R:3
C 6.344573 5.590401 4.046999 6 0.18990439 -0.06390481 0.92391218
H 6.374278 5.155508 5.040840 1 -0.10183324 -0.20869248 0.23899398
H 6.238011 4.876546 3.251252 1 -0.08355063 -0.09183216 -0.65312855
C 6.497323 6.902299 3.932211 6 0.23665479 1.27042206 0.06939207
H 6.527886 7.407447 2.953436 1 -0.07591290 -0.13622743 0.26837811
H 6.632931 7.579001 4.825239 1 -0.16338858 -0.77081214 -0.84288741
6
energy=-373.401331 Lattice="12.718 0.0 0.0 0.0 12.718 0.0 0.0 0.0 12.718" Properties=species:S:1:pos:R:3:Z:I:1:force:R:3
C 6.390432 5.634016 3.621125 6 0.08370952 -0.42812241 -0.30706913
H 6.575704 5.120652 4.560849 1 -0.13237951 -0.33223819 0.01189033
H 6.161154 5.053015 2.720698 1 -0.09732918 -0.00954137 0.25975411
C 6.544862 6.945247 3.585831 6 0.61041941 1.95350861 -0.60327534
H 6.483407 7.604882 2.669543 1 -0.17545838 -0.94464095 0.75602931
H 6.889659 7.506893 4.470281 1 -0.29097350 -0.23611640 -0.11935686
6
energy=-373.452225 Lattice="12.718 0.0 0.0 0.0 12.718 0.0 0.0 0.0 12.718" Properties=species:S:1:pos:R:3:Z:I:1:force:R:3
C 6.494811 6.062781 3.989019 6 0.07213852 0.67056321 0.36619683
H 6.344604 5.050877 3.658833 1 -0.04762561 -0.51902125 -0.22909008
H 6.859707 6.776935 3.250503 1 0.01936608 0.02384340 -0.01442184
C 6.236296 6.409221 5.254775 6 -0.17743196 0.18290121 0.23189207
H 6.350979 7.446014 5.648534 1 -0.02239947 -0.73156165 -0.30326595
H 5.850071 5.641696 5.945732 1 0.15688060 0.37599017 -0.05191678
6
energy=-373.423390 Lattice="12.718 0.0 0.0 0.0 12.718 0.0 0.0 0.0 12.718" Properties=species:S:1:pos:R:3:Z:I:1:force:R:3
C 6.499432 6.041600 3.998059 6 -0.33467868 0.10924779 0.44078047
H 6.319991 5.022962 3.676847 1 0.06088788 -0.31162153 -0.10880556
H 6.823041 6.743727 3.222948 1 0.07445560 -0.04041057 0.21980479
C 6.237782 6.419210 5.257128 6 -0.07658808 1.32182256 0.16737174
H 6.348156 7.491743 5.567196 1 0.06904960 -0.79462005 -0.32431867
H 5.823984 5.803172 6.065053 1 0.20890640 -0.28507538 -0.39989939
6
energy=-373.446093 Lattice="12.718 0.0 0.0 0.0 12.718 0.0 0.0 0.0 12.718" Properties=species:S:1:pos:R:3:Z:I:1:force:R:3
C 6.557466 6.186991 3.191883 6 0.31851877 0.92256852 -0.68825498
H 6.406999 5.261366 2.643395 1 -0.03314771 -0.12724090 0.01342991
H 6.916144 7.068033 2.626726 1 -0.08121606 -0.53073315 -0.03084606
C 6.316308 6.350217 4.484132 6 0.02703003 0.05202014 0.08186913
H 6.494432 7.312636 4.959634 1 -0.05701271 0.00943390 0.15802114
H 5.946217 5.536294 5.081725 1 -0.17554425 -0.32209415 0.47693998
6
energy=-373.379898 Lattice="12.718 0.0 0.0 0.0 12.718 0.0 0.0 0.0 12.718" Properties=species:S:1:pos:R:3:Z:I:1:force:R:3
C 6.392379 6.852012 5.167516 6 -0.37363092 -0.11782089 0.50492800
H 6.610485 7.024113 4.138786 1 0.34154816 0.42350059 -0.72595870
H 6.195983 7.635974 5.871635 1 0.15017773 0.99133170 -0.00833398
C 6.204810 5.637841 5.642299 6 -0.50620789 -1.44591592 0.31798398
H 5.861153 5.477907 6.671630 1 0.22377407 0.02801373 -0.08634079
H 6.264972 4.727972 5.035017 1 0.16285482 0.12841024 0.00071940
6
energy=-373.436539 Lattice="12.718 0.0 0.0 0.0 12.718 0.0 0.0 0.0 12.718" Properties=species:S:1:pos:R:3:Z:I:1:force:R:3
C 6.491077 7.115442 4.256774 6 0.09870164 0.27057743 0.03398178
H 6.297760 8.188225 4.330666 1 -0.05390784 -0.13894097 0.05779278
H 6.695540 6.540228 5.138144 1 0.03098644 0.02380175 0.87465547
C 6.551144 6.459283 3.111383 6 -0.04090731 -0.12651431 -1.05871779
H 6.789249 5.392698 3.080118 1 -0.06234415 0.06266966 -0.02061306
H 6.377918 6.948633 2.145390 1 0.02709585 -0.09380317 0.11280209
6
energy=-373.426175 Lattice="12.718 0.0 0.0 0.0 12.718 0.0 0.0 0.0 12.718" Properties=species:S:1:pos:R:3:Z:I:1:force:R:3
C 6.407595 6.703081 5.015132 6 0.52718040 0.55910941 -1.20839981
H 6.698588 6.511121 3.943068 1 -0.37675276 -0.06216469 1.03908946
H 6.403295 7.773330 5.282903 1 -0.05978642 -0.35407870 -0.02442755
C 6.147047 5.763807 5.920238 6 0.12654773 0.30056063 -0.45000662
H 5.921401 6.085505 6.920870 1 -0.19654864 -0.14884692 0.61365129
H 6.164123 4.708428 5.684331 1 -0.01949720 -0.29577529 0.03100958
6
energy=-373.421723 Lattice="12.718 0.0 0.0 0.0 12.718 0.0 0.0 0.0 12.718" Properties=species:S:1:pos:R:3:Z:I:1:force:R:3
C 6.468293 6.403228 3.059644 6 0.22060132 0.03910959 0.08794516
H 6.507007 5.314748 2.895137 1 -0.09935778 0.42955451 -0.29634762
H 6.479961 7.133842 2.228361 1 -0.08315931 -0.70481341 0.11147848
C 6.489390 6.891358 4.299494 6 0.06718503 0.28786657 0.55578291
H 6.498481 7.968489 4.465006 1 -0.04944646 0.13678279 -0.03651226
H 6.525341 6.315449 5.235064 1 -0.05643113 -0.19223124 -0.41945573
6
energy=-373.373601 Lattice="12.718 0.0 0.0 0.0 12.718 0.0 0.0 0.0 12.718" Properties=species:S:1:pos:R:3:Z:I:1:force:R:3
C 6.450291 5.987422 3.452724 6 0.16767050 -0.28110817 0.13154493
H 6.650330 5.157259 4.140076 1 -0.21087175 -0.18373322 -0.44680406
H 6.184203 5.850089 2.393498 1 0.08150146 -0.44493435 0.43577299
C 6.583678 7.230310 3.893418 6 -0.34307951 0.02724240 -1.48542917
H 6.424145 8.012862 3.170373 1 -0.09012392 0.64708337 -0.13421631
H 6.849287 7.525309 4.864085 1 0.39600879 0.23279762 1.50647007
6
energy=-373.446383 Lattice="12.718 0.0 0.0 0.0 12.718 0.0 0.0 0.0 12.718" Properties=species:S:1:pos:R:3:Z:I:1:force:R:3
C 6.442449 6.758250 4.193171 6 -0.27270322 0.04031030 -1.44729352
H 6.241607 7.842502 4.254803 1 0.19636352 -0.41763693 0.04714841
H 6.414370 6.187607 5.110864 1 0.14316221 -0.10768353 0.31858871
C 6.582611 6.146532 2.991424 6 -0.21112012 0.32208952 0.95212235
H 6.710754 5.065186 2.909949 1 0.06276016 0.01220504 0.08353726
H 6.525390 6.680960 2.043421 1 0.08168349 0.15501398 0.03823490
6
energy=-373.380465 Lattice="12.718 0.0 0.0 0.0 12.718 0.0 0.0 0.0 12.718" Properties=species:S:1:pos:R:3:Z:I:1:force:R:3
C 6.673055 7.099083 3.175321 6 0.29174277 -0.15382047 0.69205611
H 6.914654 6.728321 2.164874 1 -0.37354453 -0.35473639 0.43448178
H 6.860205 8.180047 3.235100 1 -0.28253719 -0.13344498 0.30771756
C 6.351992 6.334462 4.256061 6 0.65736573 1.03024537 -0.97887418
H 6.254248 6.781431 5.272713 1 -0.09823369 -0.40108312 -0.74026895
H 6.297552 5.251772 4.124030 1 -0.19359135 0.02392927 0.27750502
6