6
energy=-373.371240 Lattice="12.718 0.0 0.0 0.0 12.718 0.0 0.0 0.0 12.718" Properties=species:S:1:pos:R:3:Z:I:1:force:R:3
C 6.459909 6.823497 4.128147 6 -0.42114443 0.82710648 0.22254508
H 6.247397 7.903766 4.175593 1 0.18196533 -0.18234791 -0.65896804
H 6.479072 6.449792 5.149221 1 0.23159125 -0.60771615 -0.00634909
C 6.565388 6.065667 3.032208 6 -0.20387731 0.11921340 1.39580765
H 6.683502 5.009249 3.170153 1 0.21611166 -0.73796473 -0.06551690
H 6.460220 6.399886 2.029639 1 -0.00489898 0.58192591 -0.87630406
6
energy=-373.391462 Lattice="12.718 0.0 0.0 0.0 12.718 0.0 0.0 0.0 12.718" Properties=species:S:1:pos:R:3:Z:I:1:force:R:3
C 6.383100 6.210215 3.733009 6 -0.19324014 -1.97820150 -0.41562169
H 6.287285 5.812630 4.745035 1 -0.20357804 -0.45106849 -0.20308079
H 6.320273 5.543961 2.838375 1 -0.06996645 0.32313648 0.82820434
C 6.654635 7.479449 3.623631 6 0.67706965 1.86210068 -0.60868494
H 6.861034 7.993190 2.677211 1 -0.18815398 -0.14869626 0.05728679
H 6.771440 8.082718 4.510123 1 -0.02403932 0.37761305 0.34626202
6
energy=-373.411049 Lattice="12.718 0.0 0.0 0.0 12.718 0.0 0.0 0.0 12.718" Properties=species:S:1:pos:R:3:Z:I:1:force:R:3
C 6.473612 6.439933 3.052182 6 0.34870766 -0.31203290 -0.70103492
H 6.551057 5.387070 2.715261 1 -0.17686734 0.29558811 0.58557842
H 6.489318 7.116731 2.167301 1 -0.13233426 -0.05567419 0.79892820
C 6.478059 6.862038 4.326006 6 0.11743316 0.12776952 -0.77642897
H 6.482177 7.935933 4.505249 1 -0.09729267 0.08648169 0.21096482
H 6.528392 6.215382 5.201851 1 -0.06386316 -0.13768473 -0.11888687
6
energy=-373.413483 Lattice="12.718 0.0 0.0 0.0 12.718 0.0 0.0 0.0 12.718" Properties=species:S:1:pos:R:3:Z:I:1:force:R:3
C 6.239621 6.949702 5.852759 6 -0.04184833 -1.03094883 0.80207266
H 6.468017 7.450083 4.898621 1 -0.15897399 0.04634931 0.45710185
H 5.947169 7.529110 6.768275 1 0.28480336 -0.21526422 -0.99309342
C 6.331476 5.599822 5.948565 6 -0.17227175 0.55089730 -0.10353274
H 6.118747 5.016844 6.856930 1 0.01215207 0.45263995 -0.04584486
H 6.592601 4.964393 5.098637 1 0.07996599 0.19596191 -0.12261600
6
energy=-373.406984 Lattice="12.718 0.0 0.0 0.0 12.718 0.0 0.0 0.0 12.718" Properties=species:S:1:pos:R:3:Z:I:1:force:R:3
C 6.205344 5.730430 5.334081 6 -0.08262606 0.07109517 1.15107651
H 6.075344 5.920567 6.411058 1 -0.04322387 -0.19805633 -0.19572177
H 6.127771 4.678613 5.049322 1 0.03981716 0.17875762 -0.33399477
C 6.464040 6.773955 4.549198 6 -0.16034336 -0.52048473 0.82956857
H 6.616993 6.607459 3.513256 1 0.19584467 0.26429365 -1.17016696
H 6.529618 7.761311 4.997553 1 0.04855275 0.21207194 -0.27211598
6
energy=-373.389051 Lattice="12.718 0.0 0.0 0.0 12.718 0.0 0.0 0.0 12.718" Properties=species:S:1:pos:R:3:Z:I:1:force:R:3
C 6.644195 6.869156 3.157129 6 0.13426310 0.17411832 -0.23203914
H 6.486682 6.607001 2.118230 1 0.19417962 0.64996455 -0.55033680
H 7.030416 7.857979 3.465267 1 -0.23746572 -0.48223080 -0.23848490
C 6.351078 5.875593 3.983022 6 0.13765593 0.39993075 0.98590050
H 6.453230 5.997096 5.066885 1 -0.06374284 -0.27944106 -0.08614230
H 5.992687 4.945322 3.572935 1 -0.16556014 -0.47058318 0.11507392
6
energy=-373.408353 Lattice="12.718 0.0 0.0 0.0 12.718 0.0 0.0 0.0 12.718" Properties=species:S:1:pos:R:3:Z:I:1:force:R:3
C 6.139804 5.939317 6.369948 6 0.21475360 0.23015298 0.28539831
H 5.926834 6.584977 7.249490 1 0.00650438 -0.49140141 -0.40356887
H 6.193467 4.838286 6.569551 1 -0.11379042 0.89981630 -0.39976055
C 6.403711 6.534977 5.193487 6 0.03104095 -0.06009135 0.63532879
H 6.683976 6.014298 4.298361 1 0.06841196 -0.64963493 -0.45327090
H 6.424399 7.617293 5.054227 1 -0.20847959 0.06712435 0.32466526
6
energy=-373.424161 Lattice="12.718 0.0 0.0 0.0 12.718 0.0 0.0 0.0 12.718" Properties=species:S:1:pos:R:3:Z:I:1:force:R:3
C 6.533490 6.184910 3.191076 6 -0.03037658 -0.52798670 0.49143484
H 6.704386 5.119476 3.439353 1 0.02323456 0.44694290 -0.12931630
H 6.345563 6.378948 2.125140 1 0.05379523 0.24704771 0.36442534
C 6.511488 7.099707 4.171653 6 -0.01472935 -0.23920327 0.10564259
H 6.301109 8.144600 4.015087 1 -0.07239975 0.50389544 -0.44975620
H 6.674820 6.894315 5.240724 1 0.04130017 -0.42113774 -0.38250123
6
energy=-373.435305 Lattice="12.718 0.0 0.0 0.0 12.718 0.0 0.0 0.0 12.718" Properties=species:S:1:pos:R:3:Z:I:1:force:R:3
C 6.499002 7.134404 4.256903 6 0.07944817 0.10639284 -0.66543591
H 6.312351 8.218020 4.306842 1 -0.07787054 -0.26206965 -0.38172476
H 6.699672 6.726505 5.242420 1 0.01276914 -0.47453291 0.06588199
C 6.539270 6.425441 3.105598 6 0.16266559 0.87947578 1.08445815
H 6.794378 5.373315 3.091542 1 -0.04177274 -0.29083208 0.03656060
H 6.398675 6.911242 2.144476 1 -0.13423585 0.04275593 -0.14110121
6
energy=-373.417522 Lattice="12.718 0.0 0.0 0.0 12.718 0.0 0.0 0.0 12.718" Properties=species:S:1:pos:R:3:Z:I:1:force:R:3
C 6.470642 5.950939 5.435619 6 -0.23090066 1.06959768 -0.02502199
H 6.634398 4.877238 5.339469 1 -0.05472237 -0.05074641 0.44366679
H 6.576451 6.478209 4.469523 1 -0.00130818 -0.01170573 0.43508033
C 6.138959 6.611726 6.568775 6 -0.13801332 -0.84949669 -0.11089382
H 5.932503 7.689020 6.654081 1 0.21436125 -0.26550824 -0.40169659
H 5.970843 6.064882 7.514409 1 0.20779156 0.10267296 -0.34651862
6
energy=-373.383998 Lattice="12.718 0.0 0.0 0.0 12.718 0.0 0.0 0.0 12.718" Properties=species:S:1:pos:R:3:Z:I:1:force:R:3
C 6.242125 6.968794 6.247096 6 -0.08599781 0.95268079 1.17443346
H 6.305600 7.639297 5.367094 1 0.03336986 -0.80461960 0.05792391
H 6.077436 7.603433 7.181962 1 0.15253492 -1.07947021 -0.90408948
C 6.373056 5.629290 6.278053 6 -0.17625130 0.87809818 -0.07974282
H 6.296460 5.043017 7.198515 1 0.02091388 0.19074719 -0.03936876
H 6.537610 5.068416 5.364746 1 0.05530344 -0.14776758 -0.20631472
6
energy=-373.425122 Lattice="12.718 0.0 0.0 0.0 12.718 0.0 0.0 0.0 12.718" Properties=species:S:1:pos:R:3:Z:I:1:force:R:3
C 6.532335 6.534561 3.942854 6 -0.57367729 -1.52378029 0.84241021
H 6.487260 5.920579 3.053934 1 0.14645117 0.17644465 -0.56830368
H 6.790366 7.568582 3.894898 1 0.21725323 0.74064948 -0.15821346
C 6.218607 5.924004 5.097838 6 0.18194065 0.67660736 0.60059213
H 6.238278 6.485431 6.057380 1 -0.03616928 -0.31811562 -0.49228485
H 5.951400 4.862368 5.187494 1 0.06159288 0.24998751 -0.22914253
6
energy=-373.403999 Lattice="12.718 0.0 0.0 0.0 12.718 0.0 0.0 0.0 12.718" Properties=species:S:1:pos:R:3:Z:I:1:force:R:3
C 6.214058 6.947108 6.398194 6 0.02263292 -0.55951204 -0.34487517
H 6.193104 7.624365 5.576922 1 -0.03771760 1.05494032 -0.39805025
H 6.031328 7.260729 7.408587 1 -0.01722589 0.41146679 0.43299311
C 6.410285 5.670437 6.108346 6 -0.29202148 -1.28859669 0.76419566
H 6.364246 4.914935 6.914885 1 0.17369974 0.19659646 -0.33476816
H 6.512501 5.263624 5.103689 1 0.15155995 0.19337589 -0.12277746
6
energy=-373.355332 Lattice="12.718 0.0 0.0 0.0 12.718 0.0 0.0 0.0 12.718" Properties=species:S:1:pos:R:3:Z:I:1:force:R:3
C 6.374822 5.995182 3.957322 6 -0.71838576 -0.66057910 0.76970502
H 6.322112 5.869102 5.057556 1 0.33315247 0.38504097 -0.45666476
H 5.993224 5.106389 3.442598 1 0.27490975 0.08726587 -0.21229305
C 6.672941 7.120926 3.312203 6 -0.25571028 -0.82710597 1.81038394
H 6.578557 7.126543 2.277988 1 0.03381877 0.35851077 -2.04323606
H 6.918841 8.007674 3.858853 1 0.33482883 0.66395804 0.13396126
6
energy=-373.398398 Lattice="12.718 0.0 0.0 0.0 12.718 0.0 0.0 0.0 12.718" Properties=species:S:1:pos:R:3:Z:I:1:force:R:3
C 6.558930 7.285273 4.106854 6 -0.03256664 0.52296687 0.57452473
H 6.382045 8.268705 3.721766 1 -0.06820113 0.80882078 -0.19986690
H 6.737150 7.251364 5.185391 1 0.09219108 -0.34385855 -0.13595129
C 6.497221 6.261916 3.274563 6 -0.20574239 -1.21540041 -0.19469076
H 6.628402 5.223626 3.670087 1 -0.07589028 0.66179934 -0.66148927
H 6.238482 6.444949 2.208150 1 0.29026593 -0.42706825 0.61878476
6
energy=-373.425929 Lattice="12.718 0.0 0.0 0.0 12.718 0.0 0.0 0.0 12.718" Properties=species:S:1:pos:R:3:Z:I:1:force:R:3
C 6.261755 5.729168 6.495760 6 0.15108122 0.46603386 -0.81580339
H 5.964792 5.821985 7.555580 1 0.18537667 -0.37634652 -0.43583521
H 6.485288 4.741781 6.021642 1 -0.22307524 0.60775626 0.70216980
C 6.346281 6.842731 5.734404 6 -0.33815790 -0.22913945 0.62225523
H 6.596771 6.827212 4.676097 1 0.12140449 -0.17443559 -0.09644575
H 6.107025 7.841372 6.129887 1 0.10383356 -0.28548830 0.03081212
6
energy=-373.425813 Lattice="12.718 0.0 0.0 0.0 12.718 0.0 0.0 0.0 12.718" Properties=species:S:1:pos:R:3:Z:I:1:force:R:3
C 6.537646 7.269410 4.138160 6 0.39711077 -0.43623476 0.86472895
H 6.416157 8.325795 3.963990 1 -0.21466156 0.39200969 -0.54887538
H 6.781569 7.067418 5.198932 1 -0.19637123 -0.18075228 -0.42436962
C 6.496266 6.288141 3.231985 6 0.30528735 -0.11907713 -0.01515461
H 6.708809 5.248898 3.548088 1 -0.20668702 0.42105958 -0.26674443
H 6.343755 6.472126 2.155910 1 -0.08396612 -0.07488498 0.39291935
6
energy=-373.438493 Lattice="12.718 0.0 0.0 0.0 12.718 0.0 0.0 0.0 12.718" Properties=species:S:1:pos:R:3:Z:I:1:force:R:3
C 6.214426 5.660012 6.076648 6 0.24516360 0.47333066 -0.71068068
H 5.935666 5.608097 7.135871 1 0.02218607 -0.02191404 -0.27006476
H 6.439015 4.739577 5.527710 1 -0.11880459 -0.11382128 0.34876011
C 6.330910 6.817938 5.401917 6 -0.18862912 0.63634386 0.98663429
H 6.643833 6.889200 4.360435 1 -0.03645261 -0.22818968 -0.05271279
H 6.145964 7.806183 5.892787 1 0.07611756 -0.74284983 -0.29356568
6
energy=-373.404343 Lattice="12.718 0.0 0.0 0.0 12.718 0.0 0.0 0.0 12.718" Properties=species:S:1:pos:R:3:Z:I:1:force:R:3
C 6.279426 6.907913 5.709524 6 0.18664423 -0.66588586 0.17311816
H 6.563481 7.220651 4.703519 1 -0.10856902 -0.11632759 -0.02403983
H 6.062241 7.683120 6.415317 1 -0.25031456 0.68577027 0.36266207
C 6.280109 5.627277 6.115762 6 0.43300288 1.07277916 -0.79635915
H 6.084086 5.381756 7.154046 1 -0.11290339 -0.35473484 0.01239993
H 6.599664 4.904660 5.371576 1 -0.14815581 -0.62976029 0.26467212
6
energy=-373.399695 Lattice="12.718 0.0 0.0 0.0 12.718 0.0 0.0 0.0 12.718" Properties=species:S:1:pos:R:3:Z:I:1:force:R:3
C 6.586015 6.508068 3.198251 6 -0.26003333 -0.67903603 -0.13475316
H 6.446272 5.958361 2.254858 1 -0.14189877 -0.32648560 0.45719852
H 6.988034 7.491181 2.968033 1 0.08880957 0.31300221 0.55510825
C 6.297714 6.038896 4.431314 6 0.20966230 0.54606259 -1.45110801
H 6.456199 6.686056 5.267213 1 0.13109962 0.38016204 0.75104188
H 5.875738 5.063571 4.644510 1 -0.02799213 -0.23416596 -0.17811998
6
energy=-373.405325 Lattice="12.718 0.0 0.0 0.0 12.718 0.0 0.0 0.0 12.718" Properties=species:S:1:pos:R:3:Z:I:1:force:R:3
C 6.430061 5.909673 5.056840 6 -0.51367850 -0.94826363 0.28091945
H 6.330221 4.817233 4.935593 1 0.05409039 0.25102212 0.41531110
H 6.707103 6.368816 4.116961 1 0.21572085 0.58066350 -0.02882929
C 6.120021 6.564849 6.183492 6 0.00524248 1.04960014 -0.53563625
H 6.169652 7.677757 6.182788 1 0.05319668 -0.63202749 0.08451993
H 5.742458 6.135011 7.114946 1 0.18492364 -0.29912647 -0.20887760
6
energy=-373.368324 Lattice="12.718 0.0 0.0 0.0 12.718 0.0 0.0 0.0 12.718" Properties=species:S:1:pos:R:3:Z:I:1:force:R:3
C 6.480661 6.850016 4.193700 6 0.11429693 -1.40756223 -0.17767313
H 6.630168 7.060049 3.143846 1 -0.15877036 -0.21460499 -0.51198414
H 6.640668 7.724522 4.776583 1 -0.11034514 0.60037976 1.05165908
C 6.270810 5.594376 4.641584 6 0.33367852 -0.27632591 -0.22372110
H 6.215488 5.281116 5.708922 1 -0.06321319 0.53321581 -0.59800097
H 6.239760 4.730940 3.927166 1 -0.11525287 0.77103479 0.46608323
6
energy=-373.425187 Lattice="12.718 0.0 0.0 0.0 12.718 0.0 0.0 0.0 12.718" Properties=species:S:1:pos:R:3:Z:I:1:force:R:3
C 6.379064 6.327945 4.252173 6 0.29612496 0.86535887 -0.96529258
H 6.043170 6.832836 5.146516 1 -0.15022504 0.13097723 0.33481598
H 6.519611 5.259379 4.329194 1 0.04900115 -0.34465508 -0.14745647
C 6.634423 7.045474 3.137837 6 -0.05312263 0.33414183 -0.18793389
H 6.987948 6.623292 2.172594 1 -0.18035016 -0.06667595 0.66896038
H 6.496764 8.158189 3.085148 1 0.03382906 -0.91844344 0.29228116
6
energy=-373.416507 Lattice="12.718 0.0 0.0 0.0 12.718 0.0 0.0 0.0 12.718" Properties=species:S:1:pos:R:3:Z:I:1:force:R:3
C 6.418606 6.626284 5.737884 6 -0.56903542 0.19457351 1.34576624
H 6.739921 6.159884 4.837010 1 0.37259220 -0.67110211 -0.66995849
H 6.220569 7.686219 5.645332 1 -0.03081624 0.37651724 0.02824976
C 6.202384 5.988414 6.907110 6 0.18644059 0.85526677 -1.12291263
H 5.841247 6.567624 7.767743 1 0.12259337 -0.47364896 -0.04500874
H 6.396816 4.924633 6.945007 1 -0.08082423 -0.28281281 0.46850264
6
energy=-373.421874 Lattice="12.718 0.0 0.0 0.0 12.718 0.0 0.0 0.0 12.718" Properties=species:S:1:pos:R:3:Z:I:1:force:R:3
C 6.380460 6.466396 4.269756 6 0.17312381 -0.53557557 -1.28422272
H 6.288642 7.395962 4.820878 1 -0.04225714 0.01919433 0.33935244
H 6.246015 5.486707 4.778798 1 0.06315200 0.74424542 -0.13899394
C 6.640976 6.499790 2.940359 6 -0.26263066 -0.11494382 1.49387371
H 6.729214 5.601080 2.369401 1 0.04841699 -0.80190759 -0.35609393
H 6.785062 7.394350 2.363586 1 0.01929152 0.68863345 -0.05389653
6
energy=-373.424763 Lattice="12.718 0.0 0.0 0.0 12.718 0.0 0.0 0.0 12.718" Properties=species:S:1:pos:R:3:Z:I:1:force:R:3
C 6.365267 6.744536 4.686952 6 -0.02627155 0.01384026 -0.80650782
H 6.525941 7.766086 4.295015 1 0.05696437 -0.39546166 0.14260582
H 6.092894 6.714457 5.755259 1 0.13927110 -0.34357985 -0.41123488
C 6.438315 5.680783 3.851638 6 -0.39752883 0.86913222 1.35259149
H 6.210791 4.683678 4.195125 1 0.00882198 -0.43030322 0.24872973
H 6.652272 5.757805 2.802260 1 0.21914505 0.28839673 -0.53446074
6
energy=-373.434929 Lattice="12.718 0.0 0.0 0.0 12.718 0.0 0.0 0.0 12.718" Properties=species:S:1:pos:R:3:Z:I:1:force:R:3
C 6.394447 6.523372 4.253144 6 -0.10380374 -0.04543400 -0.03869667
H 6.282395 7.525531 4.667095 1 -0.01076470 -0.13003466 0.44420055
H 6.274599 5.627603 4.891747 1 0.07324667 0.56128816 -0.17813284
C 6.632349 6.423417 2.944080 6 -0.18295572 0.03165853 0.29469491
H 6.698349 5.435986 2.505889 1 0.15572926 -0.12290807 -0.46622978
H 6.711471 7.321230 2.321504 1 0.06610825 -0.28699702 -0.05440612
6
energy=-373.421775 Lattice="12.718 0.0 0.0 0.0 12.718 0.0 0.0 0.0 12.718" Properties=species:S:1:pos:R:3:Z:I:1:force:R:3
C 6.419977 6.672938 5.001203 6 0.01299231 0.08766800 -1.20623494
H 6.603485 6.248483 3.995417 1 0.09870421 0.59528794 0.26772711
H 6.393673 7.764945 5.131408 1 0.11156487 -0.35654130 -0.05670418
C 6.145194 5.807178 5.960745 6 -0.11733289 0.07943583 0.13237437
H 5.892557 6.152082 6.942533 1 -0.12321609 0.01852687 0.78175065
H 6.127698 4.747771 5.758228 1 0.01887345 -0.41867822 0.07670378
6
energy=-373.404703 Lattice="12.718 0.0 0.0 0.0 12.718 0.0 0.0 0.0 12.718" Properties=species:S:1:pos:R:3:Z:I:1:force:R:3
C 6.501908 6.934852 3.859757 6 -0.07590416 0.01469901 -1.03438639
H 6.476653 7.678405 3.034043 1 -0.05143444 -0.42898630 0.39848065
H 6.631380 7.370726 4.843772 1 0.01252128 -0.13847457 0.32027998
C 6.397019 5.616092 3.606356 6 0.31741063 0.55481978 0.32841855
H 6.485496 4.912529 4.467477 1 -0.21284996 0.14455729 -0.89966306
H 6.298416 5.283153 2.547856 1 0.01045051 -0.14651442 0.88835072
6
energy=-373.394439 Lattice="12.718 0.0 0.0 0.0 12.718 0.0 0.0 0.0 12.718" Properties=species:S:1:pos:R:3:Z:I:1:force:R:3
C 6.369037 6.304778 4.033023 6 -0.21718947 -0.85877941 0.70188030
H 6.139339 6.347199 5.091048 1 -0.07342253 0.36169739 0.29217317
H 6.350555 5.299546 3.672303 1 -0.01843482 -0.75000573 -0.63981948
C 6.672428 7.357871 3.308517 6 0.36299992 1.33182776 0.64172467
H 6.963319 7.321872 2.269254 1 -0.01968644 0.02788209 -0.33336742
H 6.721867 8.315576 3.859846 1 -0.03224783 -0.11020476 -0.66136020
6
energy=-373.384135 Lattice="12.718 0.0 0.0 0.0 12.718 0.0 0.0 0.0 12.718" Properties=species:S:1:pos:R:3:Z:I:1:force:R:3
C 6.663195 7.319876 3.440305 6 0.73597829 1.36956953 -0.37949150
H 6.827888 7.492925 2.384362 1 -0.21888897 -0.13797629 -0.43851790
H 6.900106 8.210495 4.047571 1 -0.25701691 -0.36921376 -0.00005965
C 6.362809 6.153053 3.972505 6 0.26397021 0.26718563 0.52311548
H 6.368045 6.140348 5.050421 1 -0.32066102 -0.59912094 0.48244317
H 6.223949 5.261694 3.392202 1 -0.20320626 -0.53179347 -0.18132358
6
energy=-373.421271 Lattice="12.718 0.0 0.0 0.0 12.718 0.0 0.0 0.0 12.718" Properties=species:S:1:pos:R:3:Z:I:1:force:R:3
C 6.310008 6.551910 4.787425 6 0.19649207 -0.54971768 0.06850452
H 6.534530 7.608155 4.937212 1 -0.00679492 0.12900262 -0.42750894
H 6.011931 6.073283 5.733694 1 -0.08428031 -0.16242750 -0.42491881
C 6.484746 5.877435 3.630961 6 0.09778324 1.31593473 1.30799670
H 6.328940 4.825257 3.572515 1 -0.23283053 -0.87273280 -0.11159984
H 6.863393 6.386580 2.757847 1 0.02948080 0.13056637 -0.40914868
6
energy=-373.428981 Lattice="12.718 0.0 0.0 0.0 12.718 0.0 0.0 0.0 12.718" Properties=species:S:1:pos:R:3:Z:I:1:force:R:3
C 6.299634 6.885152 5.636596 6 0.47320211 -1.64701592 -0.43706214
H 6.609424 6.974656 4.593229 1 -0.12501175 0.09694043 -0.05881814
H 6.116324 7.804239 6.150894 1 -0.25900026 0.52031503 0.52532252
C 6.263456 5.658047 6.203785 6 0.17989919 0.83303391 -0.11605145
H 6.032448 5.573817 7.274909 1 -0.03179017 -0.25863157 -0.28082997
H 6.530467 4.746380 5.633063 1 -0.23664245 0.45756207 0.36156473
6
energy=-373.323087 Lattice="12.718 0.0 0.0 0.0 12.718 0.0 0.0 0.0 12.718" Properties=species:S:1:pos:R:3:Z:I:1:force:R:3
C 6.626017 6.357090 2.919064 6 -0.21050408 -1.03601236 -0.39770469
H 6.602984 5.491755 2.233747 1 -0.06083749 -0.19717393 0.66104858
H 6.847382 7.222592 2.301516 1 0.09251196 0.67294560 0.56530474
C 6.365837 6.314883 4.238466 6 0.07749670 -0.13291070 -1.96934199
H 6.345221 7.225718 4.757023 1 0.08248259 1.36876580 1.03112521
H 6.061922 5.445481 4.787673 1 0.01766606 -0.67583963 0.10724953
6
energy=-373.383955 Lattice="12.718 0.0 0.0 0.0 12.718 0.0 0.0 0.0 12.718" Properties=species:S:1:pos:R:3:Z:I:1:force:R:3
C 6.412770 5.940278 3.616927 6 0.01510524 -0.30440135 -0.20813146
H 6.579802 5.364616 4.513252 1 -0.09293156 -0.78445236 0.05019928
H 6.122812 5.514066 2.648741 1 -0.00851447 -0.30222157 0.44687296
C 6.617366 7.236788 3.705149 6 0.08811742 2.20595204 -0.81252986
H 6.459394 7.887984 2.798185 1 0.20555265 -0.46470872 0.90042565
H 6.948267 7.764552 4.620516 1 -0.20660680 -0.35998504 -0.36831748
6
energy=-373.391672 Lattice="12.718 0.0 0.0 0.0 12.718 0.0 0.0 0.0 12.718" Properties=species:S:1:pos:R:3:Z:I:1:force:R:3
C 6.430031 6.056690 4.966708 6 -0.16634278 0.25666724 1.14584277
H 6.483519 5.052951 4.588072 1 -0.18670387 -0.81862903 0.20639751
H 6.734610 6.754260 4.197226 1 -0.04613694 0.62378247 0.04768988
C 6.095517 6.413447 6.233889 6 0.72927028 0.70190035 -1.82438206
H 6.139412 7.489937 6.468921 1 -0.16010734 -0.39541538 0.18908575
H 5.845587 5.724527 7.021579 1 -0.16975824 -0.36675887 0.23877029
6
energy=-373.392683 Lattice="12.718 0.0 0.0 0.0 12.718 0.0 0.0 0.0 12.718" Properties=species:S:1:pos:R:3:Z:I:1:force:R:3
C 6.565742 6.353593 3.171511 6 0.59508277 0.98032531 0.28241686
H 6.439416 5.558846 2.455921 1 -0.05894464 -0.15302806 -0.42140257
H 7.009268 7.320154 2.900902 1 -0.16800577 -0.27202394 -0.56816741
C 6.306721 6.198274 4.459467 6 -0.52018905 -1.06476709 1.58510063
H 6.478726 6.990833 5.223593 1 -0.11773090 -0.47449280 -0.58779420
H 5.923579 5.213509 4.855555 1 0.26844136 0.98365644 -0.29066908
6
energy=-373.336193 Lattice="12.718 0.0 0.0 0.0 12.718 0.0 0.0 0.0 12.718" Properties=species:S:1:pos:R:3:Z:I:1:force:R:3
C 6.642655 6.607694 2.958594 6 -0.12391441 -1.13133145 0.39327314
H 6.674354 6.088725 1.980233 1 -0.35103965 -0.27570216 0.67338063
H 7.001571 7.616578 2.834661 1 -0.01326793 0.61199755 0.35016753
C 6.323687 6.088772 4.176661 6 0.85982379 0.67825750 -0.45402886
H 6.480444 6.757621 5.060463 1 -0.36125979 -0.58439725 -0.55052912
H 6.073238 5.028255 4.401080 1 -0.01237987 0.70727550 -0.41361315
6
energy=-373.412016 Lattice="12.718 0.0 0.0 0.0 12.718 0.0 0.0 0.0 12.718" Properties=species:S:1:pos:R:3:Z:I:1:force:R:3
C 6.480575 6.943776 4.024868 6 0.34285788 -1.12080638 0.29530992
H 6.347710 8.000033 3.802867 1 -0.13243248 0.00087469 -0.48257430
H 6.648762 6.769372 5.109947 1 -0.15428276 -0.12572961 -0.58294612
C 6.517745 5.918538 3.134430 6 0.20775763 0.89471472 0.42618534
H 6.727385 4.882135 3.466975 1 -0.21038992 0.53427562 -0.20516801
H 6.421197 6.101553 2.045470 1 -0.05186433 -0.17215399 0.55010180
6
energy=-373.394476 Lattice="12.718 0.0 0.0 0.0 12.718 0.0 0.0 0.0 12.718" Properties=species:S:1:pos:R:3:Z:I:1:force:R:3
C 6.379105 6.394107 4.150434 6 -0.80145045 0.17302817 2.36517800
H 6.094381 6.827062 5.155203 1 0.26305232 -0.61284396 -0.84963862
H 6.338148 5.305954 4.092044 1 0.14787350 0.04714224 -0.27626112
C 6.675195 7.243935 3.192320 6 0.10949616 -0.17062676 -0.40849871
H 6.939793 6.893740 2.219385 1 0.24351655 -0.12911729 -0.88092074
H 6.651585 8.301348 3.358874 1 0.03677914 0.68666090 0.05612774
6
energy=-373.413936 Lattice="12.718 0.0 0.0 0.0 12.718 0.0 0.0 0.0 12.718" Properties=species:S:1:pos:R:3:Z:I:1:force:R:3
C 6.400985 6.790713 5.080335 6 0.13352468 -0.47190370 -0.79771001
H 6.665083 6.842245 4.005342 1 -0.08860028 -0.50500256 0.46599941
H 6.318072 7.774241 5.501876 1 -0.07378043 0.51023013 0.55637478
C 6.175082 5.681420 5.796725 6 -0.35554525 -0.08029509 0.22952923
H 5.868952 5.781673 6.860717 1 0.25180888 -0.14733203 -0.55748653
H 6.193020 4.644837 5.396502 1 0.13387898 0.69019000 0.10119612
6
energy=-373.447123 Lattice="12.718 0.0 0.0 0.0 12.718 0.0 0.0 0.0 12.718" Properties=species:S:1:pos:R:3:Z:I:1:force:R:3
C 6.447189 6.836253 4.083263 6 -0.22147601 -0.59106927 0.18405667
H 6.421794 7.838035 3.652013 1 0.06879711 0.01745009 0.09484241
H 6.378826 6.729387 5.185416 1 0.14454187 0.26200948 -0.56043918
C 6.473994 5.730416 3.319771 6 -0.13191568 0.97728061 0.52728633
H 6.448772 4.769082 3.799732 1 0.04481127 -0.61595397 0.05054690
H 6.471191 5.774659 2.239256 1 0.09461615 -0.04026608 -0.30465743
6
energy=-373.389997 Lattice="12.718 0.0 0.0 0.0 12.718 0.0 0.0 0.0 12.718" Properties=species:S:1:pos:R:3:Z:I:1:force:R:3
C 6.390972 5.945590 3.827861 6 -0.48580412 -0.21640374 -0.26166341
H 6.458894 5.740735 4.887992 1 -0.02534595 -0.62950729 0.16771369
H 6.011402 5.222832 3.106870 1 0.12611167 -0.34517805 0.21831253
C 6.647421 7.185640 3.455457 6 0.34082876 0.96320638 0.81173333
H 6.563013 7.560072 2.446608 1 0.01386288 0.12093758 -0.33029752
H 6.937464 7.877159 4.266181 1 0.02789238 0.10825740 -0.60553842
6
energy=-373.421752 Lattice="12.718 0.0 0.0 0.0 12.718 0.0 0.0 0.0 12.718" Properties=species:S:1:pos:R:3:Z:I:1:force:R:3
C 6.403803 6.129877 3.290651 6 -0.00207951 -1.34242277 -0.21943301
H 6.228427 5.130160 3.744460 1 -0.00700678 0.46253768 -0.43982762
H 6.493330 6.171644 2.189952 1 -0.12571726 0.04325113 0.48169395
C 6.574894 7.176414 4.084102 6 0.23350056 0.44149215 -0.90725965
H 6.804045 8.135839 3.609578 1 -0.06562334 0.12827654 0.48545908
H 6.535071 7.056761 5.149766 1 -0.03264532 0.26600190 0.59927264
6
energy=-373.397339 Lattice="12.718 0.0 0.0 0.0 12.718 0.0 0.0 0.0 12.718" Properties=species:S:1:pos:R:3:Z:I:1:force:R:3
C 6.351534 6.118696 4.051152 6 0.31708204 -0.25663022 -0.57224673
H 5.947681 6.211359 5.064892 1 0.04679874 0.04173418 -0.10861684
H 6.490741 5.058324 3.702692 1 -0.07171943 1.06547671 0.08364165
C 6.659282 7.221270 3.335589 6 -0.23872093 -1.11934805 0.36482232
H 7.049941 7.267306 2.329400 1 0.18322003 -0.53953147 -0.37571763
H 6.509521 8.197962 3.735388 1 -0.23555796 0.79660289 0.61070429
6
energy=-373.424081 Lattice="12.718 0.0 0.0 0.0 12.718 0.0 0.0 0.0 12.718" Properties=species:S:1:pos:R:3:Z:I:1:force:R:3
C 6.360817 5.998570 3.644153 6 -0.21356729 -0.56460077 0.99399588
H 6.024950 5.446848 4.560005 1 0.19939793 0.38469747 -0.69877749
H 6.464537 5.353014 2.752317 1 -0.01180651 0.61155995 0.19491393
C 6.640586 7.307218 3.734410 6 -0.13661772 -0.92059649 0.21443221
H 6.995663 7.837526 2.875185 1 0.22197429 0.54835859 -0.52438098
H 6.560133 7.848033 4.682920 1 -0.06186593 -0.05690472 -0.18071011
6
energy=-373.370363 Lattice="12.718 0.0 0.0 0.0 12.718 0.0 0.0 0.0 12.718" Properties=species:S:1:pos:R:3:Z:I:1:force:R:3
C 6.273286 6.846522 5.581528 6 0.36364938 -0.49028504 -0.34535288
H 6.582855 7.818790 5.157576 1 -0.19810827 -0.56618715 -0.08920500
H 5.994160 6.849144 6.621257 1 -0.29153965 0.25215598 0.52006924
C 6.326077 5.652596 4.969552 6 0.46321850 0.42322805 -0.26755021
H 6.112061 4.700841 5.429096 1 -0.39610495 -0.13732066 0.74030135
H 6.692804 5.462870 3.969358 1 0.05921306 0.53182690 -0.54983749
6
energy=-373.409640 Lattice="12.718 0.0 0.0 0.0 12.718 0.0 0.0 0.0 12.718" Properties=species:S:1:pos:R:3:Z:I:1:force:R:3
C 6.404173 6.556223 4.253424 6 -0.37437397 -0.09126549 0.10846772
H 6.246656 7.560232 4.656493 1 0.17308010 0.03336523 -0.07798059
H 6.254815 5.761230 5.002591 1 0.22874041 0.01835666 -0.47513558
C 6.626087 6.377055 2.947329 6 -0.04800664 0.42902692 -0.65455757
H 6.718689 5.433754 2.403086 1 0.02631989 -0.26772145 0.52163812
H 6.692666 7.225781 2.236783 1 -0.00695947 -0.13228747 0.58061002
6
energy=-373.436214 Lattice="12.718 0.0 0.0 0.0 12.718 0.0 0.0 0.0 12.718" Properties=species:S:1:pos:R:3:Z:I:1:force:R:3
C 6.161771 6.195868 6.825022 6 -0.04854812 0.29039140 -0.56553306
H 5.796884 7.068852 7.370739 1 -0.01216801 -0.23102715 0.37842655
H 6.251915 5.225844 7.347776 1 -0.02394162 0.48147798 -0.29199885
C 6.444167 6.389897 5.523268 6 0.29110154 -1.15762666 0.71267071
H 6.826531 5.557108 4.914509 1 -0.13051649 0.30835108 -0.01833198
H 6.354384 7.362849 5.065753 1 -0.07499656 0.30147183 -0.22122045
6
energy=-373.400325 Lattice="12.718 0.0 0.0 0.0 12.718 0.0 0.0 0.0 12.718" Properties=species:S:1:pos:R:3:Z:I:1:force:R:3
C 6.358780 6.174610 4.107420 6 0.03729439 -0.79589378 0.17076508
H 5.977781 6.284337 5.129134 1 -0.03337191 0.31203445 -0.14266650
H 6.505320 5.083892 3.843144 1 -0.03832335 1.24745181 -0.06519088
C 6.646010 7.192901 3.281801 6 0.21721261 -1.29118939 -0.04873427
H 7.066893 6.928053 2.312608 1 -0.02151089 0.22393605 -0.21433554
H 6.545335 8.244362 3.497157 1 -0.16205058 0.31378897 0.30275841
6
energy=-373.409263 Lattice="12.718 0.0 0.0 0.0 12.718 0.0 0.0 0.0 12.718" Properties=species:S:1:pos:R:3:Z:I:1:force:R:3
C 6.587180 6.632049 3.264242 6 -0.23449095 0.14630050 -1.18718202
H 6.393754 6.293882 2.226182 1 0.18638403 0.08651203 0.55965500
H 6.934445 7.641687 3.394951 1 0.36264356 0.52654688 -0.17910677
C 6.311582 5.915123 4.336316 6 -0.31240057 -0.09753127 -0.23834195
H 6.448811 6.358541 5.299082 1 0.11129799 0.01711996 0.84512941
H 5.857256 4.947682 4.245418 1 -0.11358268 -0.67763992 0.19411637
6
energy=-373.425827 Lattice="12.718 0.0 0.0 0.0 12.718 0.0 0.0 0.0 12.718" Properties=species:S:1:pos:R:3:Z:I:1:force:R:3
C 6.469390 5.705214 3.287476 6 0.14488537 0.37717288 0.26528661
H 6.613793 4.759768 3.818023 1 -0.11313942 0.13423842 0.09870009
H 6.368086 5.615596 2.208398 1 -0.08708024 0.05483910 -0.15066058
C 6.482355 6.903685 3.901199 6 0.46003033 -0.88725697 0.41781690
H 6.427482 7.817015 3.299035 1 -0.12080645 0.01277839 0.38228835
H 6.662637 6.940313 5.009614 1 -0.28501162 0.29818030 -1.00858330
6
energy=-373.416681 Lattice="12.718 0.0 0.0 0.0 12.718 0.0 0.0 0.0 12.718" Properties=species:S:1:pos:R:3:Z:I:1:force:R:3
C 6.650557 7.110734 3.099067 6 -0.07935870 0.31020793 -0.39916714
H 6.976524 6.601766 2.163838 1 -0.14195636 -0.00661494 0.78297655
H 6.506944 8.205308 2.956182 1 0.09044273 -0.61178518 0.25439901
C 6.393289 6.522035 4.279320 6 -0.16743139 1.26489573 -0.56262719
H 6.029650 7.119605 5.118686 1 0.07861308 0.05276730 -0.01625041
H 6.466101 5.479484 4.477263 1 0.21882366 -1.00411369 -0.05872610
6
energy=-373.399875 Lattice="12.718 0.0 0.0 0.0 12.718 0.0 0.0 0.0 12.718" Properties=species:S:1:pos:R:3:Z:I:1:force:R:3
C 6.374115 6.214337 3.846132 6 0.04494960 -0.20493867 -0.45628218
H 6.189639 5.942861 4.878507 1 -0.07624972 -0.07443298 0.30777412
H 6.289763 5.368725 3.124148 1 0.13672519 0.71193383 0.31690000
C 6.679959 7.479636 3.510572 6 -0.30701256 -0.78571478 0.09726593
H 6.851284 7.684299 2.439884 1 0.04376741 0.49048662 0.56047724
H 6.704152 8.240182 4.319487 1 0.15815330 -0.14906393 -0.83351470
6
energy=-373.408666 Lattice="12.718 0.0 0.0 0.0 12.718 0.0 0.0 0.0 12.718" Properties=species:S:1:pos:R:3:Z:I:1:force:R:3
C 6.159525 6.164205 6.793820 6 -0.09669000 -0.50614567 2.01311659
H 5.842656 6.962700 7.493569 1 -0.01794580 -0.31990254 -0.41697615
H 6.306891 5.178097 7.288559 1 -0.13891115 0.46661956 -0.49755715
C 6.433980 6.418132 5.532859 6 0.67181688 -0.36081293 -0.62810501
H 6.870828 5.666121 4.858170 1 -0.32162878 0.24119176 0.09374866
H 6.348312 7.434772 5.199498 1 -0.09457090 0.48902520 -0.57572029
6
energy=-373.434611 Lattice="12.718 0.0 0.0 0.0 12.718 0.0 0.0 0.0 12.718" Properties=species:S:1:pos:R:3:Z:I:1:force:R:3
C 6.490793 6.030482 3.350160 6 -0.22174649 1.02795092 0.25257301
H 6.620089 5.044986 3.790500 1 0.13850697 0.04023214 0.22263147
H 6.218481 6.062439 2.302100 1 0.01895110 -0.20498032 -0.34417994
C 6.556766 7.208167 4.001242 6 0.01987978 -0.34955818 0.33874000
H 6.363508 8.163430 3.501283 1 0.03765178 -0.20919744 -0.14372323
H 6.775055 7.322035 5.076694 1 0.00504297 -0.30874497 -0.33127814
6
energy=-373.408653 Lattice="12.718 0.0 0.0 0.0 12.718 0.0 0.0 0.0 12.718" Properties=species:S:1:pos:R:3:Z:I:1:force:R:3
C 6.395799 6.594301 4.236257 6 0.19574234 -0.40491870 0.37042167
H 6.323310 7.606399 4.646231 1 -0.11263394 -0.11904370 -0.11415963
H 6.363294 5.762310 4.949020 1 -0.12144872 0.20369477 0.06489006
C 6.612595 6.338439 2.945057 6 0.20427841 0.82050800 0.00357795
H 6.765695 5.299823 2.614726 1 -0.11701305 0.49630811 -0.27860442
H 6.707670 7.227263 2.277967 1 -0.04978225 -0.98528960 -0.03604741
6
energy=-373.408442 Lattice="12.718 0.0 0.0 0.0 12.718 0.0 0.0 0.0 12.718" Properties=species:S:1:pos:R:3:Z:I:1:force:R:3
C 6.498602 6.786362 4.108295 6 0.26205731 0.36014496 0.64464184
H 6.618638 6.849212 3.033704 1 -0.14659515 -0.27849592 -0.33363327
H 6.692326 7.750707 4.606853 1 -0.23271431 -0.34672225 0.07762783
C 6.245841 5.651510 4.777560 6 0.45063346 -0.21699458 -0.39827136
H 6.235913 5.627263 5.889843 1 -0.16809216 -0.12971482 -0.75073798
H 6.178320 4.700233 4.189657 1 -0.16426584 0.61507105 0.75486100
6