6
energy=-373.408440 Lattice="12.718 0.0 0.0 0.0 12.718 0.0 0.0 0.0 12.718" Properties=species:S:1:pos:R:3:Z:I:1:force:R:3
C 6.371829 5.668751 5.322850 6 0.09210367 0.69374429 0.52818570
H 6.236687 4.720275 5.816157 1 -0.20172427 -0.43887220 0.25378503
H 6.766042 5.590604 4.316284 1 -0.02846470 0.26823001 -0.30907099
C 6.160702 6.825961 5.985142 6 0.23747857 -1.76441155 -0.25950677
H 6.376159 7.751752 5.488405 1 -0.08167989 0.75012040 0.06115579
H 5.841928 6.750741 7.032792 1 -0.01937688 0.49785592 -0.26609343
6
energy=-373.364563 Lattice="12.718 0.0 0.0 0.0 12.718 0.0 0.0 0.0 12.718" Properties=species:S:1:pos:R:3:Z:I:1:force:R:3
C 6.682239 7.049197 3.167630 6 0.06361017 0.50983469 -1.10150818
H 6.800683 6.532928 2.207712 1 0.15941365 0.46232787 0.04541600
H 6.732418 8.125829 3.298561 1 0.22939604 0.25267997 -0.69580940
C 6.372651 6.383986 4.244084 6 -0.72167883 -1.12261386 2.66485314
H 6.192472 6.906006 5.216723 1 0.19097242 -0.31508840 -0.68037815
H 6.247434 5.293889 4.311683 1 0.07784637 0.20153195 -0.24071662
6
energy=-373.426711 Lattice="12.718 0.0 0.0 0.0 12.718 0.0 0.0 0.0 12.718" Properties=species:S:1:pos:R:3:Z:I:1:force:R:3
C 6.516459 6.134658 3.233188 6 0.07995519 -0.07268360 0.46065254
H 6.710300 5.098089 3.537396 1 -0.06190809 0.17942559 -0.14087496
H 6.316717 6.329284 2.179851 1 0.01645199 -0.06459490 -0.04186942
C 6.523049 7.129680 4.123538 6 0.12215526 0.50001667 1.07400455
H 6.342659 8.174905 3.851916 1 -0.05051450 -0.12701979 -0.28933210
H 6.711358 7.045348 5.230751 1 -0.10460078 -0.42456297 -1.06145756
6
energy=-373.413989 Lattice="12.718 0.0 0.0 0.0 12.718 0.0 0.0 0.0 12.718" Properties=species:S:1:pos:R:3:Z:I:1:force:R:3
C 6.641833 6.620594 3.042858 6 -0.57480086 0.30197680 0.80568969
H 6.815668 5.639827 2.566668 1 0.03620836 0.31527661 0.34318338
H 6.555377 7.465051 2.326700 1 0.18045506 -0.30928799 0.55606471
C 6.414983 6.747509 4.382785 6 0.27012646 -0.94029218 -1.67958771
H 6.176307 7.669912 4.881297 1 -0.04086566 0.58571366 0.02527808
H 6.415457 5.859965 5.022274 1 0.12667372 0.04635137 -0.04102095
6
energy=-373.432591 Lattice="12.718 0.0 0.0 0.0 12.718 0.0 0.0 0.0 12.718" Properties=species:S:1:pos:R:3:Z:I:1:force:R:3
C 6.468043 6.880084 3.983945 6 0.10426036 1.43270661 -0.45316703
H 6.463332 7.805411 3.394541 1 -0.02860251 -0.19506717 -0.11979909
H 6.530809 7.069130 5.042755 1 -0.03383471 -0.21837166 0.54824238
C 6.439917 5.677643 3.443092 6 -0.03722394 -0.57230226 0.38908738
H 6.450486 4.837810 4.132177 1 0.01527288 -0.43661580 -0.18982057
H 6.398590 5.487368 2.376819 1 -0.02224006 -0.01546674 -0.16956540
6
energy=-373.417421 Lattice="12.718 0.0 0.0 0.0 12.718 0.0 0.0 0.0 12.718" Properties=species:S:1:pos:R:3:Z:I:1:force:R:3
C 6.507723 6.117641 3.954419 6 -0.39116072 0.51054998 1.62575237
H 6.367077 5.152798 3.519614 1 -0.06600284 -0.75596401 -0.40356887
H 6.853333 6.917518 3.303848 1 0.07903011 0.06666927 -0.00727263
C 6.224660 6.341617 5.259714 6 0.25400306 0.63562498 -0.44210819
H 6.361030 7.344137 5.696366 1 0.02562106 -0.16597768 -0.25303736
H 5.845327 5.632652 6.005413 1 0.09831648 -0.29007155 -0.51499542
6
energy=-373.381231 Lattice="12.718 0.0 0.0 0.0 12.718 0.0 0.0 0.0 12.718" Properties=species:S:1:pos:R:3:Z:I:1:force:R:3
C 6.277593 5.725455 6.444107 6 -0.43293963 -1.42320175 1.42614515
H 5.973581 5.704261 7.513591 1 0.18852936 0.34675825 -0.45678251
H 6.432919 4.668658 6.114082 1 0.15663634 1.01716359 -0.43681840
C 6.340277 6.861132 5.764235 6 -0.21773248 0.02588074 -0.46209493
H 6.565736 6.866584 4.697742 1 0.12691746 0.11762960 -0.03485853
H 6.064509 7.813664 6.226168 1 0.18221370 -0.07838631 -0.03538098
6
energy=-373.405869 Lattice="12.718 0.0 0.0 0.0 12.718 0.0 0.0 0.0 12.718" Properties=species:S:1:pos:R:3:Z:I:1:force:R:3
C 6.316616 6.884861 5.439532 6 0.08295259 1.35804429 0.13753921
H 6.615888 7.554655 4.636338 1 0.06408274 0.21642071 -0.00120071
H 6.052273 7.347584 6.383430 1 -0.07269439 0.06669961 0.24141185
C 6.287455 5.593163 5.222175 6 -0.28826664 -1.48607144 -0.33043173
H 5.938911 4.875255 5.997277 1 0.36397951 0.25601418 -0.64463310
H 6.558230 5.267400 4.200741 1 -0.15122005 -0.41715202 0.59680386
6
energy=-373.407840 Lattice="12.718 0.0 0.0 0.0 12.718 0.0 0.0 0.0 12.718" Properties=species:S:1:pos:R:3:Z:I:1:force:R:3
C 6.122732 6.228284 6.466201 6 -0.01953011 -0.37762076 -0.37845226
H 5.909492 7.089494 7.135655 1 0.23046254 -0.36976655 -0.66322888
H 6.041937 5.231669 6.919715 1 -0.03863085 0.24491883 0.16735477
C 6.434412 6.267271 5.156666 6 0.11189757 0.09123360 0.11514539
H 6.630122 5.373809 4.537234 1 -0.16679118 0.08072396 0.56837567
H 6.562364 7.178409 4.574633 1 -0.11622577 0.33262180 0.19324991
6
energy=-373.418469 Lattice="12.718 0.0 0.0 0.0 12.718 0.0 0.0 0.0 12.718" Properties=species:S:1:pos:R:3:Z:I:1:force:R:3
C 6.257725 6.016132 4.737646 6 0.42194147 0.34873028 0.34541510
H 6.453177 6.688472 5.596935 1 -0.25455276 -0.34590670 -0.35657524
H 5.910004 5.006727 4.979168 1 -0.06154248 0.13980692 -0.15720147
C 6.557019 6.429713 3.504362 6 0.45694295 0.72398460 -0.08382265
H 6.494112 5.854408 2.596441 1 -0.33242948 -0.68829458 -0.21017395
H 6.978121 7.426067 3.282366 1 -0.22804364 -0.17292378 0.46266263
6
energy=-373.395184 Lattice="12.718 0.0 0.0 0.0 12.718 0.0 0.0 0.0 12.718" Properties=species:S:1:pos:R:3:Z:I:1:force:R:3
C 6.179919 6.903336 6.514235 6 0.46614956 -0.78541601 -1.66053274
H 6.144554 7.762914 5.864928 1 -0.07338499 0.38867291 -0.44739078
H 6.055016 7.168176 7.525191 1 -0.17315158 -0.21167342 1.53210501
C 6.430439 5.691678 5.978211 6 -0.24152703 0.56375899 0.75257940
H 6.498871 4.782588 6.594490 1 -0.00136937 0.21878561 -0.25460984
H 6.556754 5.607893 4.896861 1 0.02438642 -0.18266056 0.08308629
6
energy=-373.420976 Lattice="12.718 0.0 0.0 0.0 12.718 0.0 0.0 0.0 12.718" Properties=species:S:1:pos:R:3:Z:I:1:force:R:3
C 6.474894 6.076511 5.732332 6 -0.30709998 1.39897165 0.52605323
H 6.872444 5.084703 5.558378 1 -0.00463159 -0.28624369 0.13207509
H 6.417778 6.734562 4.855282 1 -0.05700500 -0.20727271 0.04689644
C 6.138529 6.560289 6.953384 6 0.65037644 -1.29649152 -0.96854400
H 5.786116 7.579121 7.110000 1 -0.02672818 -0.08527687 0.08165727
H 6.276760 5.863190 7.790034 1 -0.25604452 0.47570688 0.18558544
6
energy=-373.418525 Lattice="12.718 0.0 0.0 0.0 12.718 0.0 0.0 0.0 12.718" Properties=species:S:1:pos:R:3:Z:I:1:force:R:3
C 6.608792 6.877631 3.017132 6 -0.15921002 -0.45642873 1.26129207
H 6.897126 6.047911 2.380556 1 0.10751281 -0.36052857 0.11328597
H 6.431480 7.786846 2.471216 1 -0.07163201 0.63760010 -0.07179245
C 6.437939 6.788977 4.358512 6 0.01433442 -0.66953168 -0.49404348
H 6.111830 7.654732 4.940953 1 0.06494868 -0.00040932 -0.05892201
H 6.551290 5.837987 4.952309 1 0.04486270 0.84396779 -0.75054720
6
energy=-373.417314 Lattice="12.718 0.0 0.0 0.0 12.718 0.0 0.0 0.0 12.718" Properties=species:S:1:pos:R:3:Z:I:1:force:R:3
C 6.694131 7.168080 3.241915 6 -0.50654471 0.37718676 0.27596698
H 6.754255 6.886393 2.179921 1 0.21560310 0.13808479 0.33203816
H 6.752054 8.236971 3.512056 1 0.20884623 -0.34039065 -0.32278886
C 6.367305 6.276846 4.187818 6 0.01582464 0.97706155 -0.30667678
H 6.176205 6.592917 5.221031 1 0.16066218 -0.27176168 -0.17113583
H 6.209559 5.263552 3.885840 1 -0.09486452 -0.87943207 0.18192213
6
energy=-373.407589 Lattice="12.718 0.0 0.0 0.0 12.718 0.0 0.0 0.0 12.718" Properties=species:S:1:pos:R:3:Z:I:1:force:R:3
C 6.343916 6.012003 3.786559 6 0.24569325 0.16081593 0.39986185
H 6.006701 5.582489 4.745794 1 -0.02357189 0.56424288 -0.19692145
H 6.496157 5.244364 3.049247 1 0.05800207 -0.22673752 -0.69068622
C 6.652097 7.304854 3.592090 6 -0.02466975 -0.09999387 0.78186995
H 7.083432 7.713194 2.658333 1 -0.33820058 -0.26589237 0.41633903
H 6.531984 7.989448 4.460993 1 0.08359588 -0.13324957 -0.70840422
6
energy=-373.393733 Lattice="12.718 0.0 0.0 0.0 12.718 0.0 0.0 0.0 12.718" Properties=species:S:1:pos:R:3:Z:I:1:force:R:3
C 6.399235 6.613128 4.236827 6 0.19412306 0.62556270 0.08014649
H 6.314604 7.649428 4.578024 1 -0.10560197 -0.13201699 0.09076155
H 6.384686 5.820517 4.982746 1 -0.11278769 0.02906891 0.10027978
C 6.609182 6.326310 2.959917 6 0.35972587 -0.95967471 -1.66247135
H 6.741507 5.269232 2.641225 1 -0.12172999 0.41997149 0.31039048
H 6.704954 6.995315 2.067816 1 -0.21396479 0.02179114 1.08626358
6
energy=-373.393030 Lattice="12.718 0.0 0.0 0.0 12.718 0.0 0.0 0.0 12.718" Properties=species:S:1:pos:R:3:Z:I:1:force:R:3
C 6.510981 6.697153 4.019902 6 0.53131525 0.67245297 0.55972904
H 6.621228 6.479893 2.949051 1 -0.24454808 -0.09392041 0.21081313
H 6.781131 7.772438 4.287191 1 -0.50689181 -1.35521710 -0.10561277
C 6.226476 5.744604 4.935217 6 0.61242847 1.26187982 -0.95448622
H 6.242695 5.950991 5.990476 1 -0.15821089 0.18314495 0.52219091
H 6.079165 4.723798 4.648151 1 -0.23384560 -0.66230431 -0.24238938
6
energy=-373.442213 Lattice="12.718 0.0 0.0 0.0 12.718 0.0 0.0 0.0 12.718" Properties=species:S:1:pos:R:3:Z:I:1:force:R:3
C 6.412870 6.631323 4.964189 6 0.14023064 0.24631134 0.62080873
H 6.675019 6.227983 3.997675 1 -0.01408040 0.03748414 -0.39713442
H 6.465097 7.702866 5.155511 1 -0.02178137 0.13430681 -0.43355978
C 6.132277 5.847286 5.999656 6 0.10993994 -0.44601576 0.14154499
H 5.946072 6.244198 6.990065 1 -0.13504112 0.20202972 0.21398278
H 6.134584 4.762157 5.937124 1 -0.08048073 -0.17751012 -0.13677302
6
energy=-373.390709 Lattice="12.718 0.0 0.0 0.0 12.718 0.0 0.0 0.0 12.718" Properties=species:S:1:pos:R:3:Z:I:1:force:R:3
C 6.366984 6.898528 5.278131 6 -0.48800190 0.60456346 0.46927551
H 6.607756 7.361770 4.319996 1 0.17523418 -0.17896691 -0.07858171
H 6.125484 7.647821 6.089677 1 0.33638847 -0.91623486 -0.68517583
C 6.235610 5.579787 5.468276 6 -0.25090745 0.91866816 0.49517425
H 5.904652 5.225294 6.427817 1 -0.08662516 -0.19118531 0.64051368
H 6.356846 4.793833 4.754063 1 0.31366453 -0.23725746 -0.84624630
6
energy=-373.412372 Lattice="12.718 0.0 0.0 0.0 12.718 0.0 0.0 0.0 12.718" Properties=species:S:1:pos:R:3:Z:I:1:force:R:3
C 6.372191 5.995851 3.631918 6 -0.45428597 -0.47400635 -0.38569352
H 5.979397 5.410803 4.493650 1 0.38832582 0.37024169 -0.48411439
H 6.405963 5.450687 2.664974 1 0.14519236 0.30952196 0.50441635
C 6.646653 7.298469 3.746481 6 -0.53373414 -0.62161091 1.15403431
H 6.946666 7.972117 2.978696 1 0.34553337 0.27087465 -0.89737581
H 6.500456 7.758419 4.723405 1 0.10614447 0.14980955 0.10806766
6
energy=-373.371819 Lattice="12.718 0.0 0.0 0.0 12.718 0.0 0.0 0.0 12.718" Properties=species:S:1:pos:R:3:Z:I:1:force:R:3
C 6.345985 6.465851 4.307804 6 0.30590082 -0.66903752 -0.71277870
H 6.490706 7.471405 4.688909 1 -0.08871803 0.23988255 -0.12267410
H 6.105033 5.705014 5.047068 1 -0.15192917 -0.06060866 0.10180856
C 6.557106 6.116090 3.026728 6 0.79130487 0.52740871 -1.15407545
H 6.539043 5.087092 2.601521 1 -0.31017605 0.43967490 0.73021285
H 6.906934 6.838373 2.217910 1 -0.54641843 -0.48708247 1.17056446
6
energy=-373.390712 Lattice="12.718 0.0 0.0 0.0 12.718 0.0 0.0 0.0 12.718" Properties=species:S:1:pos:R:3:Z:I:1:force:R:3
C 6.613525 6.957323 3.026015 6 0.15157435 -1.11676460 1.38584771
H 6.958736 6.135185 2.408741 1 0.00565797 -0.08268314 -0.36652490
H 6.518572 7.920941 2.563856 1 -0.20472064 0.55605391 -0.11970808
C 6.413497 6.707103 4.337452 6 0.26569028 0.05219035 0.57184975
H 6.134462 7.497043 5.068095 1 0.01840191 -0.28533558 -0.55825374
H 6.601897 5.714743 4.847484 1 -0.23481902 0.87165756 -0.91017683
6
energy=-373.398370 Lattice="12.718 0.0 0.0 0.0 12.718 0.0 0.0 0.0 12.718" Properties=species:S:1:pos:R:3:Z:I:1:force:R:3
C 6.457191 5.899308 5.492321 6 0.51332111 -1.01507380 -0.88175789
H 6.626391 4.796977 5.598919 1 -0.23794394 0.79805762 0.03018580
H 6.653410 6.262572 4.442372 1 -0.36278960 -0.05820622 1.11991729
C 6.128775 6.667787 6.533249 6 0.51878060 0.53192666 -0.92778684
H 6.069692 7.752815 6.365402 1 -0.21761936 -0.21810067 0.35993207
H 6.052845 6.268144 7.533930 1 -0.21569154 -0.03117105 0.30309574
6
energy=-373.429452 Lattice="12.718 0.0 0.0 0.0 12.718 0.0 0.0 0.0 12.718" Properties=species:S:1:pos:R:3:Z:I:1:force:R:3
C 6.486113 7.065453 4.285699 6 -0.15177953 0.35194057 -0.57455558
H 6.240331 8.122556 4.405696 1 0.01486921 0.00987304 -0.12330505
H 6.646334 6.541410 5.199262 1 0.16361330 -0.62113937 0.73692446
C 6.562267 6.498807 3.080195 6 0.05681062 0.11934144 -0.87954211
H 6.809831 5.429499 2.883950 1 -0.17820946 0.72920857 0.30772836
H 6.395243 7.138146 2.178917 1 0.09445571 -0.58968962 0.52930619
6
energy=-373.394755 Lattice="12.718 0.0 0.0 0.0 12.718 0.0 0.0 0.0 12.718" Properties=species:S:1:pos:R:3:Z:I:1:force:R:3
C 6.672846 7.366215 3.456963 6 -0.20048037 -1.09821665 1.95418378
H 6.756895 7.635322 2.413735 1 -0.03796854 -0.15856982 -0.31286440
H 6.867362 8.157177 4.204201 1 -0.06326564 -0.09769890 -0.47198597
C 6.373607 6.130259 3.949301 6 0.09375072 0.64564303 -1.14417875
H 6.282872 5.862765 5.000796 1 0.14740042 0.48027264 0.21131089
H 6.170223 5.264230 3.309074 1 0.06203202 0.22789709 -0.22761273
6
energy=-373.417405 Lattice="12.718 0.0 0.0 0.0 12.718 0.0 0.0 0.0 12.718" Properties=species:S:1:pos:R:3:Z:I:1:force:R:3
C 6.375960 5.695339 5.291582 6 0.31721419 -0.66432365 -0.12499890
H 6.249810 4.708458 5.726482 1 -0.05816457 -0.26928314 -0.16820529
H 6.777518 5.793671 4.283181 1 -0.11788311 -0.23897547 -0.08772199
C 6.156813 6.777459 6.006607 6 -0.14473161 0.81498681 0.90662562
H 6.349842 7.741644 5.585599 1 0.08629091 0.78187406 -0.39060947
H 5.834462 6.830148 7.051840 1 -0.08173337 -0.42700912 -0.13365992
6
energy=-373.352751 Lattice="12.718 0.0 0.0 0.0 12.718 0.0 0.0 0.0 12.718" Properties=species:S:1:pos:R:3:Z:I:1:force:R:3
C 6.226343 5.673218 5.201388 6 -0.10780900 -1.36125766 1.50838451
H 6.093916 5.595668 6.305054 1 -0.07146849 -0.12378636 -0.68503802
H 6.266004 4.722378 4.629792 1 -0.16864803 0.52753624 0.33485763
C 6.433638 6.838907 4.627999 6 0.36724224 0.29476845 0.33764522
H 6.658569 6.767100 3.595196 1 0.15817129 0.70778458 -1.27171687
H 6.524546 7.775433 5.183500 1 -0.17802691 -0.03615128 -0.22535427
6
energy=-373.397824 Lattice="12.718 0.0 0.0 0.0 12.718 0.0 0.0 0.0 12.718" Properties=species:S:1:pos:R:3:Z:I:1:force:R:3
C 6.515520 6.160488 3.228701 6 0.35435586 -0.35182898 -0.72047813
H 6.776297 5.124968 3.501312 1 -0.26766900 0.29697394 -0.11423214
H 6.384257 6.370219 2.162472 1 -0.12627982 -0.10700373 0.06407914
C 6.509019 7.126967 4.138678 6 0.42059884 -0.93503016 0.84679960
H 6.359811 8.169132 3.889205 1 -0.12213572 0.24428223 0.19053842
H 6.742494 6.771565 5.163923 1 -0.25534261 0.85663408 -0.26212930
6
energy=-373.398711 Lattice="12.718 0.0 0.0 0.0 12.718 0.0 0.0 0.0 12.718" Properties=species:S:1:pos:R:3:Z:I:1:force:R:3
C 6.411644 6.847332 4.547689 6 -0.30560617 -1.02277734 -0.25214467
H 6.565042 7.622063 3.828833 1 0.20061510 0.84867805 -0.35732395
H 6.203483 7.141203 5.578228 1 0.13064299 -0.18604516 -0.02119156
C 6.383621 5.587316 4.083772 6 -0.21403164 -0.96421477 0.20779259
H 6.180701 4.697104 4.742372 1 0.20290595 0.86694318 -0.46984784
H 6.525909 5.315631 3.004013 1 -0.01652861 0.46817302 0.89181759
6
energy=-373.387092 Lattice="12.718 0.0 0.0 0.0 12.718 0.0 0.0 0.0 12.718" Properties=species:S:1:pos:R:3:Z:I:1:force:R:3
C 6.364453 6.162022 4.087771 6 -0.20947769 -1.58980575 -0.59883195
H 5.898160 6.261625 5.070840 1 0.21311427 -0.13754075 -0.01909354
H 6.497365 5.145591 3.618456 1 -0.16539507 0.71935044 0.92632542
C 6.657393 7.192972 3.314180 6 -0.07700974 -0.13329534 -0.25363334
H 7.010448 7.023380 2.302628 1 0.20522200 0.20415859 -0.15879196
H 6.473272 8.187690 3.651513 1 0.03339094 0.95002124 0.09639381
6
energy=-373.436688 Lattice="12.718 0.0 0.0 0.0 12.718 0.0 0.0 0.0 12.718" Properties=species:S:1:pos:R:3:Z:I:1:force:R:3
C 6.539030 6.225233 3.178268 6 0.26493386 -0.26336343 -0.92810617
H 6.790614 5.150873 3.227496 1 -0.21361512 0.41949224 0.32992882
H 6.405708 6.592582 2.148293 1 -0.06750950 -0.05580481 0.26765049
C 6.493308 7.067661 4.206346 6 0.21416019 -0.76217065 -0.09382888
H 6.322467 8.112210 4.068553 1 -0.23924338 0.79999006 -0.11700636
H 6.672837 6.731703 5.212501 1 0.04130737 -0.14461643 0.54453484
6
energy=-373.442511 Lattice="12.718 0.0 0.0 0.0 12.718 0.0 0.0 0.0 12.718" Properties=species:S:1:pos:R:3:Z:I:1:force:R:3
C 6.277334 6.916453 5.751248 6 0.07519145 0.11407067 -1.00381904
H 6.499056 7.192340 4.713821 1 0.04362548 0.14118298 0.14581713
H 6.007834 7.729485 6.407853 1 -0.06955302 0.13826888 0.40376581
C 6.298247 5.633087 6.075904 6 -0.10176742 -0.62825928 0.52692483
H 6.055420 5.251513 7.064134 1 -0.05391607 0.18096363 0.30461989
H 6.548712 4.837107 5.381668 1 0.10590227 0.05501085 -0.36954904
6
energy=-373.391140 Lattice="12.718 0.0 0.0 0.0 12.718 0.0 0.0 0.0 12.718" Properties=species:S:1:pos:R:3:Z:I:1:force:R:3
C 6.560544 7.069746 3.744780 6 -0.46023962 -1.11827487 -0.96048101
H 6.349787 7.828387 2.958711 1 0.25181197 -0.33357619 0.58711183
H 6.789863 7.417438 4.750152 1 0.05026613 -0.00266829 0.03750728
C 6.450260 5.754919 3.414138 6 0.15388835 1.73611500 0.41854504
H 6.579315 4.912585 4.059897 1 0.25196315 -0.30091390 0.90983538
H 6.207219 5.445170 2.423561 1 -0.24914419 0.01999600 -1.00366632
6
energy=-373.404001 Lattice="12.718 0.0 0.0 0.0 12.718 0.0 0.0 0.0 12.718" Properties=species:S:1:pos:R:3:Z:I:1:force:R:3
C 6.175066 5.929366 5.568985 6 -0.13152590 -0.84761516 0.46925289
H 6.083428 6.426109 6.534289 1 -0.00871090 0.06305172 0.00802802
H 6.026870 4.850784 5.560411 1 -0.09515865 -0.13082502 0.12519430
C 6.479988 6.574093 4.456713 6 0.15421591 0.04938990 -0.69967480
H 6.577500 6.035330 3.476520 1 -0.02806721 0.76516033 0.80463142
H 6.634612 7.647231 4.573309 1 0.11049889 0.10464397 -0.69783132
6
energy=-373.394014 Lattice="12.718 0.0 0.0 0.0 12.718 0.0 0.0 0.0 12.718" Properties=species:S:1:pos:R:3:Z:I:1:force:R:3
C 6.550482 7.046724 3.696284 6 0.38501320 1.69681206 0.02506776
H 6.444599 7.853395 2.939002 1 -0.09912741 -0.57796538 0.37763310
H 6.866573 7.361767 4.684307 1 -0.07050536 0.31911938 0.27116416
C 6.436595 5.762515 3.451598 6 0.16434452 -0.19712354 -0.29206724
H 6.655916 5.055236 4.229059 1 -0.07239100 -0.60679826 0.25693001
H 6.229882 5.443995 2.453267 1 -0.30718894 -0.63663439 -0.62803559
6
energy=-373.424898 Lattice="12.718 0.0 0.0 0.0 12.718 0.0 0.0 0.0 12.718" Properties=species:S:1:pos:R:3:Z:I:1:force:R:3
C 6.592778 6.394987 3.093926 6 -0.31905973 0.01025717 -0.08235044
H 6.769529 5.339302 2.980331 1 0.22777625 -0.55203630 0.02945047
H 6.435846 6.912784 2.155300 1 0.06431362 0.42683685 -0.09073841
C 6.461413 6.932705 4.301733 6 -0.37315424 1.08169421 0.67393341
H 6.207573 8.011029 4.504141 1 0.29231818 -0.94327826 -0.43217704
H 6.549626 6.326161 5.207695 1 0.10681244 -0.02088354 -0.09095130
6
energy=-373.316161 Lattice="12.718 0.0 0.0 0.0 12.718 0.0 0.0 0.0 12.718" Properties=species:S:1:pos:R:3:Z:I:1:force:R:3
C 6.136682 6.715197 6.720088 6 0.24107863 0.25055470 0.40987939
H 5.972744 7.838534 6.584862 1 0.08745665 -1.61611947 0.33924548
H 6.154206 6.217913 7.723956 1 -0.33125397 0.98993096 -0.48211150
C 6.454376 5.890563 5.718704 6 0.47693586 0.66474943 -0.87663470
H 6.729332 4.859076 5.866154 1 -0.13447393 -0.51821598 0.37399653
H 6.622037 6.200500 4.676359 1 -0.34108845 0.22389697 0.22767752
6
energy=-373.418708 Lattice="12.718 0.0 0.0 0.0 12.718 0.0 0.0 0.0 12.718" Properties=species:S:1:pos:R:3:Z:I:1:force:R:3
C 6.375388 6.003485 3.547710 6 0.11025104 0.67800142 -0.68335651
H 6.048171 5.335467 4.332427 1 -0.02754579 -0.45572785 -0.06018134
H 6.462666 5.713524 2.498172 1 -0.11476693 -0.56652602 0.18744590
C 6.630092 7.277824 3.831449 6 -0.19843223 -0.03371799 1.01647813
H 6.921765 8.028178 3.120552 1 0.18669308 0.23859392 -0.53440109
H 6.529787 7.621159 4.861544 1 0.03978836 0.15421796 0.07342510
6
energy=-373.434616 Lattice="12.718 0.0 0.0 0.0 12.718 0.0 0.0 0.0 12.718" Properties=species:S:1:pos:R:3:Z:I:1:force:R:3
C 6.544025 5.914912 3.057518 6 0.02431185 0.09502444 -0.82783719
H 6.598861 4.829306 3.043220 1 -0.00996715 -0.16211126 0.52506232
H 6.594509 6.322683 2.043351 1 -0.03626904 0.20173147 0.08044679
C 6.425908 6.709576 4.117292 6 0.10621698 0.29971577 -0.57791858
H 6.381904 7.795266 4.009005 1 -0.00943441 -0.03102964 -0.05226697
H 6.395576 6.341763 5.116939 1 -0.07601472 -0.39959137 0.85281445
6
energy=-373.427080 Lattice="12.718 0.0 0.0 0.0 12.718 0.0 0.0 0.0 12.718" Properties=species:S:1:pos:R:3:Z:I:1:force:R:3
C 6.623525 7.377958 3.923677 6 0.12358222 0.50601146 0.51797944
H 6.775314 8.231536 3.260815 1 0.02702488 0.05305218 0.01133035
H 6.668772 7.601208 5.016141 1 -0.05127915 -0.24480211 -0.74918760
C 6.401783 6.155105 3.440347 6 -0.07147158 0.37011056 0.77033905
H 6.235617 5.367593 4.181576 1 0.00102998 -0.32384662 -0.51324089
H 6.351633 5.992608 2.367952 1 -0.03032978 -0.35779549 -0.04260835
6
energy=-373.400286 Lattice="12.718 0.0 0.0 0.0 12.718 0.0 0.0 0.0 12.718" Properties=species:S:1:pos:R:3:Z:I:1:force:R:3
C 6.436329 5.632592 3.461904 6 -0.19963345 1.33272045 -0.36212883
H 6.527321 4.890270 4.254580 1 0.04289477 -0.15213537 -0.23080655
H 6.191703 5.375493 2.426094 1 0.13604796 -0.54376454 0.23700394
C 6.533541 6.949208 3.730752 6 -0.33383382 -1.11966429 -0.21325156
H 6.372006 7.734466 3.008978 1 0.03103529 0.11524721 -0.49732730
H 6.683018 7.285202 4.726325 1 0.32195685 0.36825474 1.07075108
6
energy=-373.401185 Lattice="12.718 0.0 0.0 0.0 12.718 0.0 0.0 0.0 12.718" Properties=species:S:1:pos:R:3:Z:I:1:force:R:3
C 6.315320 6.918210 5.417598 6 0.35877405 -1.13371538 -0.23305987
H 6.683109 7.538000 4.596655 1 -0.19394256 0.19991884 0.10907964
H 6.107475 7.389044 6.389860 1 -0.06789517 -0.11579331 -0.37280251
C 6.268940 5.577593 5.247188 6 0.10366130 -0.19656201 0.77780451
H 6.013746 4.882321 6.076909 1 -0.06844950 0.58022795 -0.28742383
H 6.562985 5.008219 4.348764 1 -0.13137627 0.67841588 0.01265395
6
energy=-373.424475 Lattice="12.718 0.0 0.0 0.0 12.718 0.0 0.0 0.0 12.718" Properties=species:S:1:pos:R:3:Z:I:1:force:R:3
C 6.358372 5.677098 3.853359 6 -0.15984406 -0.07568408 -0.61472858
H 6.484644 5.307120 4.873649 1 0.17044729 0.52344664 0.09182239
H 5.990773 4.893453 3.183971 1 0.01457714 0.06993354 -0.10893875
C 6.588362 6.911822 3.374844 6 0.03372056 -0.69759889 1.44129976
H 6.416367 7.171092 2.357405 1 -0.16473121 0.09060214 -0.95499633
H 6.932843 7.720335 4.014056 1 0.10655379 0.09126394 0.14749195
6
energy=-373.405603 Lattice="12.718 0.0 0.0 0.0 12.718 0.0 0.0 0.0 12.718" Properties=species:S:1:pos:R:3:Z:I:1:force:R:3
C 6.492372 6.548033 3.027985 6 0.45940093 0.25552567 -0.49438492
H 6.649476 5.559322 2.573951 1 -0.23504476 0.16045804 0.18383864
H 6.512755 7.403311 2.320551 1 -0.17659120 -0.46181108 0.34594526
C 6.446053 6.754012 4.348570 6 0.11662172 1.01035428 -1.50526988
H 6.407913 7.789139 4.686524 1 -0.13784054 -0.10885801 0.41674372
H 6.525364 5.949760 5.025506 1 -0.02622476 -0.85484202 1.05243349
6
energy=-373.399929 Lattice="12.718 0.0 0.0 0.0 12.718 0.0 0.0 0.0 12.718" Properties=species:S:1:pos:R:3:Z:I:1:force:R:3
C 6.343205 6.050684 3.907361 6 0.20868734 0.66694464 0.37854945
H 5.999512 6.011086 4.926213 1 -0.36705866 -0.70096087 0.41757882
H 6.529426 5.185153 3.308943 1 -0.09322981 -0.75838084 -0.21457928
C 6.651771 7.263371 3.479567 6 0.55916443 0.75211763 -0.92021751
H 7.092082 7.451385 2.484250 1 -0.23995300 -0.06856520 0.31115153
H 6.527313 8.137469 4.115690 1 -0.06679268 0.10860553 0.02429231
6
energy=-373.426458 Lattice="12.718 0.0 0.0 0.0 12.718 0.0 0.0 0.0 12.718" Properties=species:S:1:pos:R:3:Z:I:1:force:R:3
C 6.554746 7.293949 4.124288 6 -0.06476151 -1.33949068 0.26273196
H 6.359208 8.302930 3.813052 1 0.00904309 0.57216599 -0.02583035
H 6.724112 7.058173 5.184108 1 0.05264132 0.41062090 -0.18007865
C 6.500448 6.273078 3.260483 6 -0.16051563 -0.56667874 -0.68862574
H 6.643244 5.200825 3.538777 1 -0.01866211 0.84402384 0.04890705
H 6.270646 6.413924 2.181688 1 0.18179409 0.07912164 0.58617389
6
energy=-373.402360 Lattice="12.718 0.0 0.0 0.0 12.718 0.0 0.0 0.0 12.718" Properties=species:S:1:pos:R:3:Z:I:1:force:R:3
C 6.356844 6.054268 4.078588 6 -0.00638611 1.13801170 0.38342375
H 6.296330 6.203198 5.185295 1 0.21451089 0.12486314 -0.83020723
H 6.039278 5.063500 3.760257 1 0.13717874 -0.09706281 -0.21490067
C 6.680083 7.022322 3.186003 6 -0.40953537 -0.69731453 0.58448621
H 6.644776 6.778514 2.130454 1 0.05958587 -0.08134873 -0.31974776
H 6.926326 8.074194 3.386490 1 0.00554382 -0.38710094 0.39668345
6
energy=-373.411507 Lattice="12.718 0.0 0.0 0.0 12.718 0.0 0.0 0.0 12.718" Properties=species:S:1:pos:R:3:Z:I:1:force:R:3
C 6.145444 6.748720 6.301389 6 -0.19507951 -0.17963025 -0.16771832
H 6.149522 7.812929 5.949984 1 -0.02227194 -0.86955748 0.55176890
H 5.856026 6.486247 7.330617 1 0.12220411 0.46388391 -0.18244715
C 6.421348 5.761505 5.437073 6 0.22219027 0.86006342 -0.71591956
H 6.441023 4.692894 5.633469 1 -0.10984480 -0.03180611 0.34664152
H 6.674157 6.049797 4.405186 1 -0.01438173 -0.23759478 0.15847211
6
energy=-373.345834 Lattice="12.718 0.0 0.0 0.0 12.718 0.0 0.0 0.0 12.718" Properties=species:S:1:pos:R:3:Z:I:1:force:R:3
C 6.147178 6.601936 6.799202 6 -0.30114479 0.42775680 -1.14960275
H 5.853206 7.675123 6.719347 1 0.30266380 -0.60402558 0.32293953
H 6.019546 6.142472 7.802658 1 0.33500624 0.01047314 -0.75969931
C 6.484181 5.992224 5.632475 6 -0.63313204 0.07677988 0.37766396
H 6.662120 4.920723 5.522475 1 0.19653115 -0.07552312 0.39964793
H 6.456762 6.485018 4.635964 1 0.09997845 0.17148242 0.80125453
6
energy=-373.461527 Lattice="12.718 0.0 0.0 0.0 12.718 0.0 0.0 0.0 12.718" Properties=species:S:1:pos:R:3:Z:I:1:force:R:3
C 6.417727 6.149009 3.247093 6 -0.16376550 -0.37562713 0.29553772
H 6.215491 5.113146 3.589921 1 0.15373871 0.50895126 -0.27297268
H 6.461497 6.328087 2.165054 1 0.00207694 -0.10720428 0.22653132
C 6.568574 7.147867 4.123657 6 -0.04927368 -0.07133994 -0.60282025
H 6.735145 8.161384 3.774244 1 0.08520642 0.23962904 -0.04671544
H 6.516685 7.022336 5.193581 1 -0.02771857 -0.19850113 0.39998680
6
energy=-373.423148 Lattice="12.718 0.0 0.0 0.0 12.718 0.0 0.0 0.0 12.718" Properties=species:S:1:pos:R:3:Z:I:1:force:R:3
C 6.548113 7.173939 4.197835 6 0.29697240 0.37597166 0.46601484
H 6.584208 8.273670 4.056661 1 -0.13103071 -0.63019378 0.28131643
H 6.667896 6.717660 5.183074 1 -0.07072853 0.52374694 0.23628918
C 6.463639 6.336085 3.179805 6 0.12297852 -0.19170570 -0.89385237
H 6.516159 5.256541 3.296769 1 -0.11324689 -0.12534188 0.13185346
H 6.409956 6.690863 2.154615 1 -0.10526978 0.05574773 -0.22095716
6
energy=-373.356673 Lattice="12.718 0.0 0.0 0.0 12.718 0.0 0.0 0.0 12.718" Properties=species:S:1:pos:R:3:Z:I:1:force:R:3
C 6.386924 5.641209 3.685122 6 -0.18151127 -0.45568260 0.30266174
H 6.516323 5.227059 4.672753 1 -0.00322417 -0.69394381 0.19234694
H 6.037595 5.063765 2.832030 1 0.10994816 -0.40700798 0.18553608
C 6.576084 6.929759 3.534696 6 -0.34337879 2.48637886 -1.34666458
H 6.360417 7.381631 2.522443 1 0.36735331 -0.25210867 0.94575578
H 6.821165 7.674121 4.320688 1 0.05084412 -0.66922521 -0.27688744
6
energy=-373.367586 Lattice="12.718 0.0 0.0 0.0 12.718 0.0 0.0 0.0 12.718" Properties=species:S:1:pos:R:3:Z:I:1:force:R:3
C 6.654039 7.406462 3.673609 6 -0.27192829 0.13356479 -0.83695793
H 6.612735 7.966353 2.743641 1 0.10683815 -0.01264727 -0.32921354
H 6.844226 8.036389 4.529615 1 0.12271113 -0.06650934 0.52593341
C 6.401443 6.097156 3.730692 6 -0.29282315 -0.03502822 0.17560956
H 6.383245 5.696194 4.760506 1 -0.01853921 -0.55860239 -0.66714673
H 6.137348 5.481858 2.821372 1 0.35372440 0.53770393 1.12795970
6
energy=-373.413443 Lattice="12.718 0.0 0.0 0.0 12.718 0.0 0.0 0.0 12.718" Properties=species:S:1:pos:R:3:Z:I:1:force:R:3
C 6.544037 6.253259 3.138358 6 0.28219060 0.18687100 1.18284508
H 6.789760 5.195895 3.321269 1 -0.15067652 0.18735436 -0.42850756
H 6.424452 6.604189 2.104442 1 -0.05974477 -0.05823450 0.34349654
C 6.490398 7.045815 4.234309 6 0.01935014 -0.52708989 -1.39082948
H 6.298931 8.098852 4.197988 1 -0.19615783 0.74654759 -0.27859928
H 6.660647 6.682870 5.227396 1 0.10378214 -0.53164589 0.57343715
6
energy=-373.398958 Lattice="12.718 0.0 0.0 0.0 12.718 0.0 0.0 0.0 12.718" Properties=species:S:1:pos:R:3:Z:I:1:force:R:3
C 6.323110 5.584669 4.723977 6 0.00203117 0.66135505 -0.24289178
H 6.052558 4.882345 5.495883 1 -0.06120310 -0.01432517 0.69938581
H 6.485468 5.061195 3.786726 1 0.19555825 0.31466571 -0.43374850
C 6.383076 6.921710 4.906967 6 -0.21876710 -1.34922900 -1.02980211
H 6.566246 7.609987 4.064790 1 0.07894886 -0.18501672 0.46030647
H 6.127337 7.299505 5.875727 1 0.00325656 0.58248692 0.55527898
6
energy=-373.424094 Lattice="12.718 0.0 0.0 0.0 12.718 0.0 0.0 0.0 12.718" Properties=species:S:1:pos:R:3:Z:I:1:force:R:3
C 6.432292 6.244026 3.159864 6 0.26107463 0.32972159 0.24807975
H 6.367251 5.173392 3.274332 1 -0.15284808 -0.41437162 0.21738539
H 6.487408 6.573551 2.141501 1 -0.04796345 0.39750672 -0.65534433
C 6.535321 7.068255 4.206170 6 -0.00587497 -1.23961508 0.64218747
H 6.672879 8.138806 4.131869 1 -0.05413616 0.24277916 -0.01769846
H 6.520389 6.584637 5.210013 1 0.00001388 0.68473566 -0.43727451
6
energy=-373.376923 Lattice="12.718 0.0 0.0 0.0 12.718 0.0 0.0 0.0 12.718" Properties=species:S:1:pos:R:3:Z:I:1:force:R:3
C 6.285059 5.590374 4.940809 6 -0.26294382 0.40179995 0.43439282
H 6.019992 5.277977 5.940824 1 0.04377923 -0.71946511 0.19811392
H 6.334494 4.903316 4.115015 1 0.12299241 -0.49088205 -0.19665971
C 6.419421 6.897602 4.777839 6 -0.36347146 1.39699807 -0.67946335
H 6.559909 7.340704 3.757771 1 0.09919734 -0.20036261 0.90720309
H 6.231786 7.595789 5.629109 1 0.35959577 -0.39097097 -0.67409025
6
energy=-373.381405 Lattice="12.718 0.0 0.0 0.0 12.718 0.0 0.0 0.0 12.718" Properties=species:S:1:pos:R:3:Z:I:1:force:R:3
C 6.596542 6.537935 3.209482 6 -0.65326070 -0.62230923 0.16418305
H 6.339951 5.914201 2.341851 1 0.39537373 0.56209292 -0.14723484
H 6.933426 7.560548 3.149101 1 0.31398848 0.27185013 -0.48574036
C 6.306046 6.021325 4.400174 6 -0.19371271 -0.21587203 -0.54807114
H 6.417420 6.543366 5.314723 1 0.28276499 0.68344547 0.97671085
H 5.861823 5.047961 4.482372 1 -0.14446576 -0.68371441 0.05243100
6