6
energy=-372.483789 Lattice="12.718 0.0 0.0 0.0 12.718 0.0 0.0 0.0 12.718" Properties=species:S:1:pos:R:3:Z:I:1:force:R:3
C 5.358342 6.998744 10.467827 6 0.58511305 1.36173228 1.45489627
H 4.964184 6.252992 11.113743 1 0.35721750 -1.20319795 0.87173366
H 5.959733 6.619540 9.676464 1 -0.36274949 0.20449181 -1.69898053
C 5.353314 8.238093 11.034092 6 -1.46735585 -0.67689276 0.60941102
H 5.075952 9.187281 10.589266 1 1.44326305 0.44192873 -0.71861613
H 5.162014 8.275554 12.129258 1 -0.55735951 -0.13375351 -0.52466226
6
energy=-372.498352 Lattice="12.718 0.0 0.0 0.0 12.718 0.0 0.0 0.0 12.718" Properties=species:S:1:pos:R:3:Z:I:1:force:R:3
C 6.169631 5.475490 6.939574 6 -0.07530407 0.98358239 -1.50784767
H 5.532205 4.829012 7.569469 1 0.72796981 0.93688649 1.02107116
H 6.745640 4.789437 6.261024 1 -0.91713989 0.82667454 -0.33849317
C 6.118915 6.857380 6.725160 6 0.94242105 -1.02716108 0.55448193
H 6.337566 7.331329 5.719430 1 0.59812181 -0.77483489 1.09933354
H 6.127967 7.616809 7.569600 1 -1.27591394 -0.93761103 -0.83149433
6
energy=-372.863205 Lattice="12.718 0.0 0.0 0.0 12.718 0.0 0.0 0.0 12.718" Properties=species:S:1:pos:R:3:Z:I:1:force:R:3
C 6.409495 5.755991 5.917819 6 -0.25379069 -0.86018580 0.17058407
H 6.224209 4.724874 6.324960 1 1.15960846 0.74033220 -0.10553152
H 6.790839 5.819039 4.868556 1 -1.16649800 0.03062855 0.47308075
C 6.103210 6.830190 6.669782 6 0.78488739 -0.47580612 0.14651596
H 5.838090 7.748665 6.211085 1 0.51302749 1.29620767 -0.65896958
H 6.260736 6.922552 7.753606 1 -1.03586478 -0.72479707 -0.01599433
6
energy=-372.962541 Lattice="12.718 0.0 0.0 0.0 12.718 0.0 0.0 0.0 12.718" Properties=species:S:1:pos:R:3:Z:I:1:force:R:3
C 5.918962 6.547032 7.561120 6 2.52095251 0.10285243 -0.11511711
H 6.224630 7.593692 7.707988 1 -0.23454648 -0.00834426 -0.50001719
H 5.922814 6.046606 8.521317 1 -1.30647564 -0.42368571 0.30326852
C 6.324932 5.808221 6.503326 6 -1.35646563 -0.24417784 -0.53256892
H 5.954918 4.775040 6.402696 1 0.59555636 -0.09675634 0.54985189
H 6.753925 6.121515 5.542299 1 -0.21698532 0.66355695 0.29296970
6
energy=-372.833954 Lattice="12.718 0.0 0.0 0.0 12.718 0.0 0.0 0.0 12.718" Properties=species:S:1:pos:R:3:Z:I:1:force:R:3
C 4.792170 8.837265 12.483510 6 1.00478423 -1.27661740 2.50027106
H 5.157052 9.845110 12.719764 1 -0.67442501 0.30955127 -1.15625986
H 4.493467 8.364001 13.465617 1 0.37391014 0.24065337 -0.73998613
C 5.110639 7.991113 11.487231 6 -1.86297795 1.20175299 -1.15233327
H 4.916588 6.934727 11.572036 1 -0.15490342 -0.51046667 0.26339582
H 4.999358 8.344903 10.441445 1 1.31340065 0.02510941 0.27857048
6
energy=-372.646640 Lattice="12.718 0.0 0.0 0.0 12.718 0.0 0.0 0.0 12.718" Properties=species:S:1:pos:R:3:Z:I:1:force:R:3
C 5.403938 7.237685 10.297161 6 0.91731884 -1.17944968 0.79205821
H 5.118093 6.126575 10.335164 1 0.97870346 1.35401486 0.18072914
H 6.170804 7.552566 9.553063 1 -1.50392519 0.04581709 -0.57884110
C 5.230763 8.059755 11.364178 6 -0.46004987 0.62338909 -1.77851612
H 5.089538 9.153677 11.129973 1 1.16279561 -0.76996162 0.75650188
H 5.099936 7.677842 12.355635 1 -1.09145978 -0.07907793 0.62500940
6
energy=-372.576272 Lattice="12.718 0.0 0.0 0.0 12.718 0.0 0.0 0.0 12.718" Properties=species:S:1:pos:R:3:Z:I:1:force:R:3
C 6.142379 6.761368 7.285801 6 -0.52679730 0.51224691 -1.34230810
H 6.369494 6.557145 6.241684 1 -0.80322143 -0.36961588 -0.47248477
H 5.849594 7.799643 7.389871 1 1.26895910 0.63036604 1.05342903
C 5.906225 5.762662 8.126335 6 -0.21406660 -0.75019290 0.49249002
H 6.086661 5.777686 9.192435 1 -0.89841968 0.63550414 0.58034725
H 5.460946 4.834108 7.768680 1 1.17511120 -0.64995889 -0.30301655
6
energy=-372.681582 Lattice="12.718 0.0 0.0 0.0 12.718 0.0 0.0 0.0 12.718" Properties=species:S:1:pos:R:3:Z:I:1:force:R:3
C 5.613134 6.643930 9.640163 6 0.70156508 -0.14815375 -0.60014527
H 5.903914 5.651226 9.966222 1 -1.32433813 -0.57479983 0.26822333
H 5.640982 6.821215 8.576751 1 1.01147785 0.01714567 -0.58271729
C 5.500021 7.697528 10.437467 6 -0.21371950 1.25912514 0.92952748
H 5.898583 8.698107 10.179880 1 -1.15681470 -0.14498204 -0.58720490
H 4.992013 7.672807 11.405435 1 0.98311856 -0.40515524 0.57386344
6
energy=-372.867192 Lattice="12.718 0.0 0.0 0.0 12.718 0.0 0.0 0.0 12.718" Properties=species:S:1:pos:R:3:Z:I:1:force:R:3
C 6.138634 6.701006 7.186548 6 0.08343339 0.07551284 1.25051862
H 6.489865 6.407712 6.177794 1 -1.18566096 0.19445678 0.20508008
H 6.074726 7.761631 7.482129 1 0.99892674 -0.11003815 -0.40429238
C 5.879112 5.816775 8.188026 6 0.50246025 0.35453070 -1.60843906
H 6.129983 6.014635 9.224542 1 -1.00305902 0.38916348 0.33888604
H 5.529762 4.841141 7.890799 1 0.60281048 -0.90221823 0.22656989
6
energy=-372.921937 Lattice="12.718 0.0 0.0 0.0 12.718 0.0 0.0 0.0 12.718" Properties=species:S:1:pos:R:3:Z:I:1:force:R:3
C 6.217601 6.826902 6.318157 6 0.47335894 -1.22796695 0.28266780
H 6.499697 6.952537 5.256169 1 0.51056283 -0.47937379 0.44568768
H 6.210688 7.809274 6.813804 1 -1.12684950 -0.36541316 0.18717799
C 6.101458 5.591149 6.938184 6 -0.09472722 3.99060899 -0.82870674
H 5.561690 5.546237 7.867655 1 0.34290056 -0.26354906 0.76421520
H 6.658739 4.791543 6.548552 1 -0.10471082 -1.65048126 -0.84405983
6
energy=-371.960247 Lattice="12.718 0.0 0.0 0.0 12.718 0.0 0.0 0.0 12.718" Properties=species:S:1:pos:R:3:Z:I:1:force:R:3
C 6.454542 6.539952 5.692412 6 -0.41465753 -1.33694940 0.20697087
H 6.275566 5.753069 4.903772 1 1.86669474 0.84165019 0.13709338
H 6.690996 7.615662 5.499212 1 -1.45833744 -0.66301085 -0.28341342
C 6.182492 6.083476 6.952772 6 -0.67278773 1.69050514 0.51583360
H 5.501584 6.675996 7.594930 1 1.33737312 0.82997121 0.39231463
H 6.554379 5.241428 7.524996 1 -0.65923646 -1.36037063 -0.97544176
6
energy=-372.223761 Lattice="12.718 0.0 0.0 0.0 12.718 0.0 0.0 0.0 12.718" Properties=species:S:1:pos:R:3:Z:I:1:force:R:3
C 6.076380 5.630707 7.209435 6 -0.64244972 0.51826998 0.22805187
H 5.316641 5.552916 7.995105 1 0.86125641 0.97280894 1.03477309
H 6.612767 4.692734 7.153502 1 -0.44077019 -0.70869218 -1.41283660
C 6.225907 6.711050 6.391077 6 0.17913506 -1.66869497 0.25351712
H 6.331457 6.557759 5.333334 1 1.51359871 -0.23324910 -0.62876013
H 6.341329 7.724050 6.694131 1 -1.46982617 1.11177820 0.52090227
6
energy=-372.706546 Lattice="12.718 0.0 0.0 0.0 12.718 0.0 0.0 0.0 12.718" Properties=species:S:1:pos:R:3:Z:I:1:force:R:3
C 5.516681 7.395783 10.169350 6 0.36772664 -2.24361719 -3.48065551
H 5.697212 8.419428 9.931329 1 -0.56079297 1.02272643 -0.17572269
H 5.029942 7.171992 11.072801 1 0.23868390 -0.65917476 1.72273702
C 5.709390 6.508641 9.103995 6 0.48619081 1.66134109 0.00648741
H 6.028495 5.425084 9.071506 1 -1.26381946 0.89235084 0.52455016
H 5.716939 7.004441 8.064819 1 0.73069467 -0.67839017 1.40180244
6
energy=-372.314920 Lattice="12.718 0.0 0.0 0.0 12.718 0.0 0.0 0.0 12.718" Properties=species:S:1:pos:R:3:Z:I:1:force:R:3
C 6.353380 6.296429 5.933086 6 0.15853742 -1.09125975 -1.46078308
H 6.312639 5.476476 5.229090 1 1.52691498 -0.93439664 0.07988732
H 6.580429 7.206427 5.425958 1 -1.13639910 1.30627046 -0.33871223
C 6.012477 6.177879 7.203071 6 -0.93296710 1.44046209 0.66473606
H 5.331621 6.949991 7.559260 1 1.00076765 0.92300715 0.94002324
H 6.290535 5.437990 7.911863 1 -0.61414802 -1.64618134 0.11897274
6
energy=-372.783907 Lattice="12.718 0.0 0.0 0.0 12.718 0.0 0.0 0.0 12.718" Properties=species:S:1:pos:R:3:Z:I:1:force:R:3
C 5.195566 8.568620 11.183820 6 0.55354297 -0.37805476 -0.79669802
H 5.510737 8.013916 10.281716 1 -1.15721579 -0.05346201 -0.03657448
H 5.293515 9.654511 11.027755 1 0.75142189 -0.23494449 0.79688006
C 4.858723 7.943688 12.322010 6 -0.64987661 1.16845049 1.06849159
H 4.960952 8.442646 13.300986 1 -0.47623909 0.55254435 -0.38539784
H 4.211679 7.081339 12.469382 1 0.97407958 -1.05297651 -0.64778939
6
energy=-373.182699 Lattice="12.718 0.0 0.0 0.0 12.718 0.0 0.0 0.0 12.718" Properties=species:S:1:pos:R:3:Z:I:1:force:R:3
C 5.162429 7.544018 11.238681 6 -1.57496533 0.51831111 1.65374708
H 4.893177 6.646821 11.786546 1 0.04615493 -0.37864560 -0.04406103
H 5.131619 7.487998 10.195444 1 0.83474883 -0.17257617 -1.81035925
C 4.996716 8.712018 11.877643 6 1.39079965 -0.15868757 -0.00324319
H 5.384440 9.656566 11.485228 1 -0.65019183 0.08464952 -0.30469703
H 4.780106 8.701428 12.934105 1 -0.04513678 0.11725216 0.50740089
6
energy=-372.933233 Lattice="12.718 0.0 0.0 0.0 12.718 0.0 0.0 0.0 12.718" Properties=species:S:1:pos:R:3:Z:I:1:force:R:3
C 5.099223 8.976604 11.676445 6 -0.99317724 -2.03879473 1.32437361
H 5.261607 9.195739 10.655460 1 -0.10205436 0.21125381 -1.35435733
H 5.071376 9.858667 12.299868 1 0.12584068 0.03226891 0.64702526
C 4.839091 7.675473 12.048126 6 2.41602880 1.20574386 -2.18402411
H 5.099820 7.203287 12.961763 1 -0.78526380 0.21336366 1.73631092
H 5.059061 6.911481 11.275408 1 -0.66220352 0.38307870 -0.16486748
6
energy=-373.070632 Lattice="12.718 0.0 0.0 0.0 12.718 0.0 0.0 0.0 12.718" Properties=species:S:1:pos:R:3:Z:I:1:force:R:3
C 6.054970 5.689550 7.251634 6 -0.22038432 -0.27485730 0.17961894
H 5.446069 5.728886 8.158419 1 0.45266618 1.08054236 0.35703341
H 6.441000 4.674706 7.215192 1 -0.15788333 -0.37980774 -1.05768832
C 6.250389 6.651135 6.330880 6 -0.06931031 -0.22765386 0.55554894
H 6.513060 6.412105 5.300449 1 0.75440643 -0.03368816 0.13372883
H 6.173441 7.717464 6.573708 1 -0.75957281 -0.16891697 -0.16396245
6
energy=-372.570864 Lattice="12.718 0.0 0.0 0.0 12.718 0.0 0.0 0.0 12.718" Properties=species:S:1:pos:R:3:Z:I:1:force:R:3
C 6.092905 6.687923 7.779984 6 -2.20038405 -1.31227245 0.63304925
H 6.338550 5.961095 6.984069 1 -0.40083887 -0.02065626 0.22982491
H 5.727453 7.633981 7.291779 1 1.40872540 0.02411234 1.30143422
C 5.649474 6.165300 9.004314 6 0.90764069 1.19875868 -2.22707624
H 5.625136 6.736748 9.926170 1 -0.73250679 0.52268611 -0.04010255
H 5.296855 5.136739 9.086271 1 1.01928835 -0.40277954 0.10442646
6
energy=-372.993713 Lattice="12.718 0.0 0.0 0.0 12.718 0.0 0.0 0.0 12.718" Properties=species:S:1:pos:R:3:Z:I:1:force:R:3
C 6.198968 6.060616 6.971328 6 0.91476419 0.88885671 2.07103433
H 6.573259 5.056223 6.807333 1 -1.09445564 -0.67192847 -0.38071997
H 6.609051 6.772628 6.266074 1 0.07104632 0.38837312 -0.15926556
C 5.843418 6.456402 8.237361 6 0.56320312 -0.54337990 -0.90749876
H 6.096560 7.475445 8.634985 1 -1.02668234 -0.66514384 -0.52256321
H 5.424427 5.686936 8.924990 1 0.57353074 0.59666194 -0.11211098
6
energy=-372.384184 Lattice="12.718 0.0 0.0 0.0 12.718 0.0 0.0 0.0 12.718" Properties=species:S:1:pos:R:3:Z:I:1:force:R:3
C 5.873554 7.174460 8.651536 6 -1.07031604 -2.16049490 -1.64408898
H 6.043850 7.748134 7.755558 1 -0.40027220 0.38322371 -0.66630752
H 5.300808 7.718993 9.389875 1 1.15378697 0.06885831 1.35921363
C 5.791487 5.803367 8.496147 6 -0.19556904 0.67739618 1.21725418
H 5.901652 5.115302 9.340959 1 -0.80020912 0.36349614 0.58866117
H 5.471405 5.189175 7.645750 1 1.31150729 0.67004950 -0.86029739
6
energy=-372.661748 Lattice="12.718 0.0 0.0 0.0 12.718 0.0 0.0 0.0 12.718" Properties=species:S:1:pos:R:3:Z:I:1:force:R:3
C 5.749785 6.321271 8.585468 6 0.41513370 0.13592404 0.04803955
H 5.958990 7.153183 9.252540 1 -0.84942881 1.19406693 -0.63741035
H 5.315949 5.566097 9.207960 1 0.43667390 -1.49782601 0.05589171
C 6.130163 6.251339 7.295105 6 0.84044949 0.71576838 0.05768994
H 6.641815 5.415787 6.797256 1 -1.41573834 -0.57166309 -0.04943309
H 6.239228 7.175817 6.704010 1 0.57175205 0.03170841 0.51836922
6
energy=-372.761288 Lattice="12.718 0.0 0.0 0.0 12.718 0.0 0.0 0.0 12.718" Properties=species:S:1:pos:R:3:Z:I:1:force:R:3
C 6.307354 6.966801 6.184404 6 -1.06204223 -0.23012624 -1.14387330
H 5.967654 7.277693 5.207635 1 1.25377827 0.58468779 -0.92888830
H 6.247003 7.724910 6.935523 1 -0.60311336 0.27053167 0.83626990
C 6.325225 5.655369 6.412794 6 0.42933545 -0.35636904 1.78058689
H 6.043316 5.339306 7.422266 1 0.86780193 -0.22490947 0.30790731
H 6.757808 4.869606 5.801376 1 -0.88694792 -0.04422661 -0.84615528
6
energy=-372.870528 Lattice="12.718 0.0 0.0 0.0 12.718 0.0 0.0 0.0 12.718" Properties=species:S:1:pos:R:3:Z:I:1:force:R:3
C 5.219486 7.882979 11.063015 6 -1.17929336 -0.51006712 0.97161749
H 5.103441 6.828011 11.171123 1 -0.47878140 -1.08185825 -0.87675143
H 5.258351 8.322115 10.100055 1 1.20965245 0.59064195 -0.89174046
C 4.900369 8.497948 12.200959 6 0.95291476 0.59563915 0.20673741
H 5.312252 9.474533 12.452747 1 -0.92994194 0.57942165 -0.13961666
H 4.396657 7.922355 12.963075 1 0.42779382 -0.17919471 0.73329097
6
energy=-372.830056 Lattice="12.718 0.0 0.0 0.0 12.718 0.0 0.0 0.0 12.718" Properties=species:S:1:pos:R:3:Z:I:1:force:R:3
C 5.713901 7.232149 9.524576 6 0.06999113 1.19585745 -0.52359114
H 6.124721 6.397189 8.936177 1 -1.09041694 -0.23563715 0.25218118
H 5.678242 8.177659 8.987749 1 0.81090441 0.33095983 -0.18519875
C 5.326177 7.257926 10.807835 6 1.24927369 -1.65529385 -0.15519704
H 5.586150 8.095668 11.476669 1 -1.29927552 -0.01093851 -0.31142304
H 5.161254 6.237780 11.181575 1 0.25954791 0.37318149 0.91630737
6
energy=-372.541733 Lattice="12.718 0.0 0.0 0.0 12.718 0.0 0.0 0.0 12.718" Properties=species:S:1:pos:R:3:Z:I:1:force:R:3
C 5.939882 6.454585 7.969792 6 -0.96464157 0.42603210 1.62943882
H 5.625877 7.458957 8.340193 1 1.58363150 -0.03123173 -0.48778438
H 5.768422 5.735563 8.799344 1 -0.96216303 -0.16053363 -0.84975329
C 6.303144 6.036872 6.754053 6 0.50661721 -0.80502069 -0.42699626
H 5.944390 5.032179 6.450102 1 1.11652960 -0.04506890 0.37250889
H 7.059271 6.499843 6.091757 1 -1.28276954 0.60538570 -0.23254051
6
energy=-372.915485 Lattice="12.718 0.0 0.0 0.0 12.718 0.0 0.0 0.0 12.718" Properties=species:S:1:pos:R:3:Z:I:1:force:R:3
C 5.838210 6.762577 8.610478 6 -0.03508119 1.73979785 0.32625677
H 6.407108 6.040903 8.052393 1 -0.65552327 -1.48531245 0.06185462
H 5.761481 7.646026 7.964945 1 0.35438517 0.52373152 0.52765914
C 5.463652 6.790063 9.912054 6 0.60986456 -1.63794147 -0.75926839
H 5.452509 7.671911 10.544955 1 -0.94078943 0.36524603 -0.31215529
H 5.291787 5.813602 10.410519 1 0.66657954 0.49662796 0.16184078
6
energy=-372.951142 Lattice="12.718 0.0 0.0 0.0 12.718 0.0 0.0 0.0 12.718" Properties=species:S:1:pos:R:3:Z:I:1:force:R:3
C 4.804817 8.848770 12.475261 6 1.36100055 -0.55617475 -0.05508798
H 5.175187 9.869514 12.410795 1 -0.72369972 0.45195346 -0.03495931
H 4.464714 8.461469 13.447221 1 0.37295061 0.28424234 -0.08450656
C 5.114950 7.972099 11.495774 6 -2.47142172 -0.22409340 0.10251664
H 4.814985 6.947962 11.692209 1 0.16066938 -0.52006924 0.10858342
H 4.985357 8.172126 10.427769 1 1.30042429 0.55872426 -0.03797625
6
energy=-372.631580 Lattice="12.718 0.0 0.0 0.0 12.718 0.0 0.0 0.0 12.718" Properties=species:S:1:pos:R:3:Z:I:1:force:R:3
C 5.683569 7.436211 9.551381 6 0.99383441 0.96898520 0.88467969
H 6.371792 6.810809 8.959952 1 -1.41179890 -0.52334739 -0.61485405
H 5.680373 8.517292 9.216283 1 0.46328278 -0.90608671 0.76497316
C 5.341323 7.073079 10.823988 6 0.11104602 0.10402125 -0.99538736
H 5.424855 7.774001 11.651021 1 -1.16238320 0.49146261 -0.02294865
H 4.998959 6.063450 11.088662 1 1.00573606 -0.13304183 -0.00696718
6
energy=-372.593259 Lattice="12.718 0.0 0.0 0.0 12.718 0.0 0.0 0.0 12.718" Properties=species:S:1:pos:R:3:Z:I:1:force:R:3
C 6.214341 5.512611 6.684822 6 -0.07557660 0.00544303 1.27115431
H 5.674344 4.846909 7.377408 1 1.02714565 -0.27417544 0.27329149
H 6.905848 5.038227 5.991784 1 -0.77847094 0.16716810 -1.03526417
C 6.092337 6.830824 6.978844 6 -0.09737443 -2.34596722 -0.35775898
H 6.035745 7.521035 6.186199 1 1.08207422 1.60743685 -0.58431035
H 5.887831 7.013432 8.011820 1 -1.16056800 0.84151958 0.43229840
6
energy=-372.481665 Lattice="12.718 0.0 0.0 0.0 12.718 0.0 0.0 0.0 12.718" Properties=species:S:1:pos:R:3:Z:I:1:force:R:3
C 5.682397 7.604971 9.673828 6 0.67672101 -0.16791424 -0.95904788
H 6.203049 7.057444 8.915571 1 -0.57452113 -0.61898324 -1.41060025
H 5.518886 8.653362 9.407780 1 0.81782531 0.29615119 0.96738751
C 5.382629 6.928758 10.783200 6 -1.30758173 1.69073397 0.38968953
H 5.234934 7.579658 11.637538 1 -0.86741164 -0.18459917 0.59692059
H 4.829149 5.998254 10.718232 1 1.25437991 -1.00269135 0.40682132
6
energy=-372.621060 Lattice="12.718 0.0 0.0 0.0 12.718 0.0 0.0 0.0 12.718" Properties=species:S:1:pos:R:3:Z:I:1:force:R:3
C 5.636416 6.659523 9.612207 6 0.01296505 1.59633122 0.33133522
H 5.901400 5.660501 9.940845 1 -1.20162855 -0.50733507 0.03936413
H 5.648332 6.898298 8.557940 1 0.93398217 -0.16202538 -0.50177171
C 5.450117 7.706370 10.465353 6 1.14365373 -1.30882357 0.90027344
H 6.013029 8.652650 10.363771 1 -1.47077182 0.27563685 -0.72443660
H 5.150362 7.465522 11.500494 1 0.58083782 0.11064596 -0.05172858
6
energy=-373.082718 Lattice="12.718 0.0 0.0 0.0 12.718 0.0 0.0 0.0 12.718" Properties=species:S:1:pos:R:3:Z:I:1:force:R:3
C 6.322481 5.984034 6.245271 6 -0.50292614 1.56194423 2.70394628
H 6.290609 4.947667 6.003228 1 0.72928416 -0.86276102 -0.33258786
H 6.648954 6.739659 5.550577 1 -0.45691518 0.15116760 -0.77007629
C 5.982140 6.359410 7.524785 6 -0.08029664 -1.19342569 -1.67557370
H 5.554256 7.296101 7.847496 1 0.75211815 0.86362646 -0.11736066
H 5.927628 5.600475 8.290981 1 -0.44026471 -0.51843967 0.20165896
6
energy=-372.661013 Lattice="12.718 0.0 0.0 0.0 12.718 0.0 0.0 0.0 12.718" Properties=species:S:1:pos:R:3:Z:I:1:force:R:3
C 5.842130 6.712206 8.359889 6 -0.75289359 0.59931275 -0.45195038
H 6.023775 7.763360 8.160275 1 -0.87525145 0.48596610 -0.24221455
H 5.287678 6.499216 9.269988 1 0.95981561 -0.42100867 0.70243051
C 6.081506 5.830199 7.378822 6 1.76942109 -0.18337995 -0.13105282
H 6.589481 4.876836 7.677070 1 -1.63235703 -0.12798961 -0.64231602
H 6.225314 6.211681 6.337907 1 0.53404782 -0.35195959 0.76765585
6
energy=-373.259745 Lattice="12.718 0.0 0.0 0.0 12.718 0.0 0.0 0.0 12.718" Properties=species:S:1:pos:R:3:Z:I:1:force:R:3
C 6.226941 6.774983 6.270672 6 0.61504328 0.90993720 -0.35419542
H 6.633776 6.769683 5.263189 1 0.17602299 0.27765466 -0.07135228
H 6.050824 7.703460 6.804284 1 -0.40877896 0.42665122 -0.45360103
C 6.113473 5.671442 6.960735 6 -0.73978404 -0.38010908 0.88369599
H 5.605822 5.630093 7.896464 1 -0.17193082 0.40471507 1.15063222
H 6.403032 4.710021 6.679433 1 0.52601106 -1.62694794 -1.15809511
6
energy=-372.720207 Lattice="12.718 0.0 0.0 0.0 12.718 0.0 0.0 0.0 12.718" Properties=species:S:1:pos:R:3:Z:I:1:force:R:3
C 6.102044 6.840487 7.375808 6 -0.56915472 -0.29946945 0.24027799
H 6.347454 6.878030 6.306793 1 -0.82699644 -0.22947266 -0.05280793
H 5.791379 7.804385 7.806735 1 1.34199957 0.00859109 0.40183132
C 5.944351 5.673004 8.056587 6 -0.68315648 0.45912685 -0.47570585
H 6.046567 5.616327 9.155872 1 -0.80132087 0.18962311 -0.36552577
H 5.465682 4.819085 7.522015 1 1.53648515 -0.11488314 0.25143813
6
energy=-372.353995 Lattice="12.718 0.0 0.0 0.0 12.718 0.0 0.0 0.0 12.718" Properties=species:S:1:pos:R:3:Z:I:1:force:R:3
C 5.350330 8.423570 10.855104 6 -1.14602172 -0.92044273 2.01157342
H 5.875590 8.812152 10.001018 1 -0.68123535 -0.43143193 -1.33253944
H 4.922172 9.254704 11.480082 1 1.39027669 -0.60538930 0.31547407
C 5.135449 7.119939 11.287337 6 0.43334586 0.60013962 -0.90378712
H 5.276742 6.818489 12.342261 1 -1.32755767 0.67253885 -0.02756019
H 4.886654 6.231140 10.651119 1 1.33117059 0.67927720 -0.06800367
6
energy=-372.419169 Lattice="12.718 0.0 0.0 0.0 12.718 0.0 0.0 0.0 12.718" Properties=species:S:1:pos:R:3:Z:I:1:force:R:3
C 4.989508 7.893072 11.957223 6 -0.61726986 0.95883653 0.46935265
H 5.288880 8.775872 12.496921 1 -1.02585701 0.94099512 0.57223490
H 4.272257 7.232459 12.468838 1 1.33696894 -0.83512267 -0.03656368
C 5.335552 7.950301 10.671225 6 0.11054106 -0.70077421 -0.42379935
H 5.650206 7.086059 10.131270 1 -0.99775998 -1.13975439 -0.93890224
H 5.362723 8.853826 10.081129 1 1.19788296 0.77968913 0.36218899
6
energy=-372.472103 Lattice="12.718 0.0 0.0 0.0 12.718 0.0 0.0 0.0 12.718" Properties=species:S:1:pos:R:3:Z:I:1:force:R:3
C 6.099021 6.831003 7.004454 6 -0.70199034 1.10839617 1.36043645
H 6.718232 7.601394 6.549509 1 -0.48777873 -0.27202291 -1.54715575
H 5.399399 7.310463 7.717001 1 0.92861936 -0.28104852 0.75558760
C 6.171908 5.496184 6.953159 6 0.52014328 -0.48539377 -0.57365981
H 6.124575 4.912025 7.904795 1 -1.23479272 0.01153449 -1.03102288
H 6.369978 5.017767 5.963406 1 0.97913129 -0.07123812 1.03737865
6
energy=-372.759115 Lattice="12.718 0.0 0.0 0.0 12.718 0.0 0.0 0.0 12.718" Properties=species:S:1:pos:R:3:Z:I:1:force:R:3
C 5.419338 7.110269 10.342226 6 0.88607786 -0.70254724 1.42797835
H 5.551356 8.002821 11.061165 1 -1.03208063 -0.75920154 -1.75728342
H 5.211677 6.155934 10.917489 1 0.74368749 0.91920963 -0.27731219
C 5.784026 6.922339 9.051849 6 -0.72926565 -0.19233254 1.54457796
H 6.076678 5.949314 8.714123 1 -0.50330049 -1.04691693 -0.12260777
H 5.663779 7.576690 8.240306 1 0.63604973 1.79298733 -0.80695056
6
energy=-373.025093 Lattice="12.718 0.0 0.0 0.0 12.718 0.0 0.0 0.0 12.718" Properties=species:S:1:pos:R:3:Z:I:1:force:R:3
C 6.228650 6.718882 6.174005 6 1.45233442 0.35888923 0.15819341
H 6.778421 6.544991 5.263058 1 -0.00143519 -0.25638082 -0.66759770
H 6.121645 7.771855 6.371811 1 -0.50844424 0.47348390 0.38446607
C 6.134708 5.739510 7.067400 6 -2.31154424 -0.91676914 -0.55550729
H 5.445930 5.746662 7.901921 1 0.32084305 0.81151633 0.92747316
H 6.101756 4.717637 6.706849 1 1.04742087 -0.47213870 -0.24684356
6
energy=-372.882392 Lattice="12.718 0.0 0.0 0.0 12.718 0.0 0.0 0.0 12.718" Properties=species:S:1:pos:R:3:Z:I:1:force:R:3
C 5.990286 6.081505 7.732455 6 -0.86208225 -0.40998223 -1.24466627
H 6.047405 7.011233 8.299836 1 -0.61155172 -0.08483412 0.27131894
H 5.486758 5.202667 8.193135 1 1.09393627 0.20696675 -0.07866399
C 6.267216 6.225017 6.407288 6 1.00026166 1.42154287 1.21777509
H 6.722420 5.602348 5.648737 1 -0.95536194 -1.07961059 -0.11794327
H 6.411659 7.278779 6.128546 1 0.33578528 -0.05164373 -0.04996943
6
energy=-372.839391 Lattice="12.718 0.0 0.0 0.0 12.718 0.0 0.0 0.0 12.718" Properties=species:S:1:pos:R:3:Z:I:1:force:R:3
C 4.735011 8.243737 12.733409 6 -0.61420562 0.39508422 -1.18987243
H 4.866635 8.857425 13.598284 1 -0.35306002 0.83646839 0.52870095
H 4.005247 7.455083 12.833436 1 0.71360505 -1.32312097 0.27711318
C 5.097029 8.670764 11.508002 6 0.13165395 0.97546541 0.21433863
H 5.285318 8.054183 10.640301 1 -0.88882226 -0.50808634 -0.33303472
H 5.205112 9.749784 11.281712 1 1.01175604 -0.38723361 0.50257029
6
energy=-372.878618 Lattice="12.718 0.0 0.0 0.0 12.718 0.0 0.0 0.0 12.718" Properties=species:S:1:pos:R:3:Z:I:1:force:R:3
C 6.343683 5.637622 6.330371 6 -0.49948960 -0.79227881 -1.77889767
H 5.951845 4.957311 7.079501 1 0.83779096 0.38938768 1.11599172
H 6.580443 5.062204 5.428867 1 -0.36615723 0.11832997 -0.31740703
C 6.219493 6.959468 6.258447 6 -0.41863503 1.44467922 0.36353625
H 6.026247 7.658834 5.403999 1 1.13515160 -1.12808672 -0.02367165
H 6.208301 7.558294 7.161373 1 -0.69017817 -0.03492383 0.64972852
6
energy=-372.996018 Lattice="12.718 0.0 0.0 0.0 12.718 0.0 0.0 0.0 12.718" Properties=species:S:1:pos:R:3:Z:I:1:force:R:3
C 5.815275 5.740870 8.394802 6 0.30325978 -0.26060000 -1.31570899
H 5.945702 5.486733 9.432557 1 -0.68574353 0.91411782 0.86999303
H 5.636116 4.820880 7.857592 1 0.41036841 -0.41920633 -0.66330704
C 6.005052 6.896507 7.732044 6 0.80800317 1.01135752 1.22435866
H 6.412577 7.046627 6.715417 1 -1.14843598 -0.60273900 -0.02794945
H 6.020078 7.861905 8.293263 1 0.31407693 -0.64273717 -0.09254332
6
energy=-372.662704 Lattice="12.718 0.0 0.0 0.0 12.718 0.0 0.0 0.0 12.718" Properties=species:S:1:pos:R:3:Z:I:1:force:R:3
C 6.069322 6.159667 7.672934 6 -0.29071793 -0.89622961 0.36672133
H 6.458711 5.170256 7.439412 1 -0.81705037 -0.70447146 0.35617620
H 5.867573 6.680065 6.751427 1 0.98586913 1.29552376 -0.19197773
C 5.700632 6.604133 8.892174 6 -0.02155820 0.93495148 -0.58826728
H 5.779856 7.684506 9.074442 1 -0.99200173 0.08064271 -0.30220203
H 5.217437 6.067968 9.705803 1 1.13295433 -0.70291851 0.36520952
6
energy=-372.686494 Lattice="12.718 0.0 0.0 0.0 12.718 0.0 0.0 0.0 12.718" Properties=species:S:1:pos:R:3:Z:I:1:force:R:3
C 6.278567 5.642747 6.482012 6 0.01790209 0.14329334 -0.49520562
H 5.813586 5.171810 7.409310 1 1.36544907 0.85050971 -0.63801251
H 6.783530 4.930860 5.735804 1 -1.59187292 0.60324345 0.73159713
C 6.254864 6.973307 6.117039 6 0.38239942 -2.59296659 -0.58948444
H 6.260150 7.119488 5.020355 1 0.88086006 0.43950109 0.48621601
H 6.374053 7.810585 6.775676 1 -1.05305210 0.55098832 0.49933790
6
energy=-372.735297 Lattice="12.718 0.0 0.0 0.0 12.718 0.0 0.0 0.0 12.718" Properties=species:S:1:pos:R:3:Z:I:1:force:R:3
C 5.282442 6.912571 10.918615 6 -0.48519940 2.69488159 -1.17079534
H 4.638478 6.655868 11.759447 1 0.92767731 0.11430516 0.77265356
H 5.558720 6.123690 10.254080 1 -0.51483909 -0.83219573 -0.71740874
C 5.469185 8.207918 10.437448 6 0.61070634 -2.24292144 -0.13805960
H 5.623988 8.350344 9.328034 1 0.57812890 -0.15353354 1.17658084
H 5.733730 9.036940 11.091475 1 -1.11734310 0.42630258 0.07776050
6
energy=-372.813647 Lattice="12.718 0.0 0.0 0.0 12.718 0.0 0.0 0.0 12.718" Properties=species:S:1:pos:R:3:Z:I:1:force:R:3
C 4.942003 7.784998 11.983148 6 0.98661732 -0.43124784 -2.55982402
H 5.193843 8.285744 12.871412 1 -0.41974369 1.94551299 1.02400427
H 4.572201 6.796616 12.287006 1 0.50666864 -0.32709186 -0.78034579
C 5.343062 8.143162 10.699802 6 -0.77940117 -0.89960701 1.67837569
H 5.557770 7.337541 9.993185 1 -0.82497246 -0.03736844 -0.30063159
H 5.450579 9.150449 10.254224 1 0.52953347 -0.24790234 0.92339539
6
energy=-373.080876 Lattice="12.718 0.0 0.0 0.0 12.718 0.0 0.0 0.0 12.718" Properties=species:S:1:pos:R:3:Z:I:1:force:R:3
C 5.054810 9.006094 11.953528 6 -2.03270379 1.40309005 -0.44080464
H 5.034318 9.513956 10.949608 1 0.17297160 0.13003981 1.11760484
H 4.642564 9.581363 12.841090 1 1.38349720 -0.48808983 -0.70768071
C 4.934832 7.687783 11.855560 6 0.41051034 -0.77178041 -0.55701961
H 4.933333 6.995127 12.701974 1 -0.37324680 0.04881808 -0.10109636
H 4.893442 7.290822 10.820134 1 0.43973506 -0.32171414 0.69398289
6
energy=-373.093062 Lattice="12.718 0.0 0.0 0.0 12.718 0.0 0.0 0.0 12.718" Properties=species:S:1:pos:R:3:Z:I:1:force:R:3
C 5.132541 8.756344 11.348026 6 2.09038447 -0.08212366 -2.01955978
H 5.519893 8.390041 10.327299 1 -1.39236854 0.85327416 0.93525641
H 5.453432 9.774078 11.620487 1 -0.24250662 -0.28439455 -0.00841111
C 4.840599 7.824115 12.236961 6 0.45306110 0.21311581 1.66331364
H 5.015384 8.070646 13.319981 1 -0.97807868 -0.41194399 -0.74992088
H 4.626761 6.808228 11.927427 1 0.06958799 -0.29955842 0.17807833
6
energy=-372.528090 Lattice="12.718 0.0 0.0 0.0 12.718 0.0 0.0 0.0 12.718" Properties=species:S:1:pos:R:3:Z:I:1:force:R:3
C 5.760878 5.891548 8.544425 6 0.89852715 -0.99560385 -2.08277708
H 5.974204 5.793605 9.604955 1 -0.87356635 1.60510691 0.51847515
H 5.522667 4.853098 8.237736 1 0.72229693 0.09658510 -0.31457830
C 6.089705 6.755269 7.517044 6 -0.82593457 -0.50652414 2.42517834
H 6.462333 6.377567 6.589863 1 -0.74496379 -0.51000799 -1.07032736
H 5.973995 7.834395 7.558046 1 0.82400059 0.31499379 0.53444840
6
energy=-372.564528 Lattice="12.718 0.0 0.0 0.0 12.718 0.0 0.0 0.0 12.718" Properties=species:S:1:pos:R:3:Z:I:1:force:R:3
C 5.519695 6.455704 10.029017 6 -0.80111981 0.03656214 -0.27117444
H 5.426120 6.038619 11.010043 1 -0.93232278 0.38670396 1.15791976
H 5.224053 5.663373 9.348982 1 1.38019025 -0.10767016 -1.06892559
C 5.649206 7.773329 9.782920 6 0.67293480 0.51278324 0.61493530
H 6.277608 8.237441 9.007626 1 -1.15333137 -0.38745370 -0.84346436
H 5.325821 8.528775 10.522358 1 0.83321697 -0.44207579 0.40075659
6
energy=-372.670695 Lattice="12.718 0.0 0.0 0.0 12.718 0.0 0.0 0.0 12.718" Properties=species:S:1:pos:R:3:Z:I:1:force:R:3
C 5.676781 7.543805 9.487773 6 0.08372649 2.20935670 2.05897225
H 6.244818 8.269814 8.891696 1 -0.99484948 -0.37007663 -0.83210574
H 5.242573 7.947140 10.425188 1 1.08921212 0.48252442 0.01194175
C 5.581344 6.236420 9.477085 6 -0.30656365 -1.50958933 -0.74389884
H 5.505314 5.712196 10.442091 1 -0.94773913 -0.10264982 -0.51448582
H 5.470687 5.718955 8.525390 1 1.07787355 -0.70339468 0.02941138
6
energy=-372.860140 Lattice="12.718 0.0 0.0 0.0 12.718 0.0 0.0 0.0 12.718" Properties=species:S:1:pos:R:3:Z:I:1:force:R:3
C 5.168539 7.595000 11.197342 6 -1.11303033 -0.27209181 0.84883078
H 5.048285 6.653714 11.731600 1 -0.46811029 -0.33420405 -0.36073117
H 5.040177 7.599694 10.146033 1 1.19816681 -0.06907068 -1.37223679
C 4.991745 8.689046 11.937809 6 0.61240276 0.10232432 0.84812629
H 5.414505 9.675983 11.710063 1 -0.98422979 0.07730799 -0.35398305
H 4.557918 8.492345 12.924010 1 0.75542613 0.49875683 0.39282885
6
energy=-372.838989 Lattice="12.718 0.0 0.0 0.0 12.718 0.0 0.0 0.0 12.718" Properties=species:S:1:pos:R:3:Z:I:1:force:R:3
C 6.228757 6.966814 6.346442 6 0.27654857 1.51432839 -0.68223808
H 6.038128 7.510310 5.405980 1 0.98945633 0.09591147 0.01970289
H 6.343084 7.674057 7.206779 1 -0.98194254 -1.11953265 -0.10942520
C 6.394200 5.646629 6.271462 6 -0.80896219 -0.87053810 0.81576328
H 6.025163 4.988072 7.076767 1 1.23002229 0.14387184 0.33945374
H 6.694716 5.108592 5.370086 1 -0.70609434 0.23425286 -0.37818949
6
energy=-372.756750 Lattice="12.718 0.0 0.0 0.0 12.718 0.0 0.0 0.0 12.718" Properties=species:S:1:pos:R:3:Z:I:1:force:R:3
C 5.969674 6.150197 7.393819 6 0.11561848 0.20653327 1.67339083
H 5.459535 7.001352 7.891729 1 1.06697104 0.10081817 -0.17347451
H 6.293816 5.370139 8.104112 1 -1.12318928 -0.54542959 -0.52725547
C 6.335886 6.177684 6.117627 6 -0.19298868 0.64914693 -1.39173297
H 6.323270 5.291125 5.449627 1 1.16462418 0.26617930 0.61006768
H 6.530995 7.174119 5.651065 1 -1.02917939 -0.67198040 -0.20292292
6
energy=-372.414341 Lattice="12.718 0.0 0.0 0.0 12.718 0.0 0.0 0.0 12.718" Properties=species:S:1:pos:R:3:Z:I:1:force:R:3
C 6.189832 5.514218 7.078380 6 0.49340636 -1.93377486 -0.00265338
H 6.226871 4.810149 7.969738 1 -1.39477407 0.63474412 -1.00279883
H 6.309908 5.025057 6.084861 1 1.22701718 0.30868070 0.62858118
C 6.078201 6.837969 7.213414 6 -0.16192614 0.24736087 -0.02129338
H 6.690634 7.509543 6.573918 1 -1.44658389 0.00218184 -0.24738915