6
energy=-372.740869 Lattice="12.718 0.0 0.0 0.0 12.718 0.0 0.0 0.0 12.718" Properties=species:S:1:pos:R:3:Z:I:1:force:R:3
C 5.006917 7.426164 11.723291 6 0.03358429 1.02352708 -1.83627753
H 5.028679 7.002725 12.692991 1 -0.62569486 0.76130111 1.69607364
H 4.732455 6.639910 11.061479 1 0.74470668 -1.01242350 -1.21011731
C 5.214254 8.659897 11.194993 6 0.04106055 -0.09707104 1.52283412
H 5.647938 8.901409 10.232603 1 -0.84444550 -0.59328042 -0.89596839
H 5.071301 9.586618 11.752998 1 0.65062018 -0.08300195 0.71606920
6
energy=-372.494726 Lattice="12.718 0.0 0.0 0.0 12.718 0.0 0.0 0.0 12.718" Properties=species:S:1:pos:R:3:Z:I:1:force:R:3
C 6.433651 5.712340 6.010144 6 -1.25545000 0.32928399 -2.33076428
H 6.015773 4.737267 6.314178 1 1.50346033 0.08415638 0.92870215
H 6.618693 5.748458 4.918315 1 -0.46728136 -0.20290852 0.12723627
C 6.127600 6.888643 6.587585 6 0.54447416 -2.06179944 2.04175819
H 5.707638 7.734321 6.107299 1 0.77101474 1.33488069 -0.67667421
H 6.227432 6.838273 7.685770 1 -1.09609600 0.50371598 -0.08165367
6
energy=-372.857762 Lattice="12.718 0.0 0.0 0.0 12.718 0.0 0.0 0.0 12.718" Properties=species:S:1:pos:R:3:Z:I:1:force:R:3
C 6.183940 5.505689 7.146180 6 -0.06068733 -0.96619401 -0.08463615
H 6.109803 4.842212 8.022185 1 -1.05105435 0.49862468 0.02995286
H 6.318058 4.888837 6.247577 1 1.09694395 0.45558489 -0.06416090
C 6.083159 6.843286 7.135437 6 0.08077692 0.05651032 0.14083793
H 6.672284 7.413890 6.378793 1 -1.31876295 -0.10200551 0.04188536
H 5.444294 7.345317 7.898815 1 1.25545412 0.06727348 -0.07392852
6
energy=-372.561530 Lattice="12.718 0.0 0.0 0.0 12.718 0.0 0.0 0.0 12.718" Properties=species:S:1:pos:R:3:Z:I:1:force:R:3
C 4.687389 8.219954 12.710693 6 0.84218036 -0.35831382 -0.16742573
H 5.098960 8.491366 13.673352 1 -0.92937372 1.45539558 0.51204944
H 4.184033 7.279888 12.781794 1 0.29204822 -1.31881180 -0.31362236
C 5.097841 8.742103 11.538347 6 -0.29023970 0.17561007 0.62168959
H 5.370131 8.112285 10.704922 1 -1.10098470 -0.14380704 -0.83549394
H 5.171778 9.818905 11.416219 1 1.18045447 0.18585027 0.18258445
6
energy=-372.372243 Lattice="12.718 0.0 0.0 0.0 12.718 0.0 0.0 0.0 12.718" Properties=species:S:1:pos:R:3:Z:I:1:force:R:3
C 5.957517 7.063637 8.271800 6 0.00022986 0.67654206 -2.85289142
H 6.393427 7.141326 7.230212 1 -1.33223348 0.00231657 0.38182298
H 5.586069 8.038502 8.616270 1 1.18490865 -0.20036930 1.12401923
C 5.690711 5.841092 8.742810 6 0.71468954 0.18056922 1.09581575
H 5.949616 5.727448 9.808361 1 -1.64792712 -0.43372896 0.15916323
H 5.459930 4.991951 8.094398 1 1.07796920 -0.22502414 0.08794825
6
energy=-372.543688 Lattice="12.718 0.0 0.0 0.0 12.718 0.0 0.0 0.0 12.718" Properties=species:S:1:pos:R:3:Z:I:1:force:R:3
C 5.897546 5.661112 8.072855 6 0.59812078 0.46581635 -0.50984447
H 6.291462 4.927339 8.745106 1 -1.06242892 -0.44548662 1.50071337
H 5.787942 5.211333 7.093397 1 0.71170603 0.25563314 -0.71681430
C 5.894006 6.998618 8.218913 6 0.10888527 0.97062299 -0.59509202
H 6.229832 7.653411 7.391456 1 -1.22000321 -0.40707123 -0.48287306
H 5.598187 7.665037 9.039992 1 0.86427592 -0.83174938 0.80019524
6
energy=-373.094690 Lattice="12.718 0.0 0.0 0.0 12.718 0.0 0.0 0.0 12.718" Properties=species:S:1:pos:R:3:Z:I:1:force:R:3
C 6.269196 5.550889 6.879260 6 -1.01404124 2.92740873 1.44527160
H 6.050669 4.668673 7.437113 1 -0.52059117 -0.84958462 0.09176017
H 6.517788 5.512206 5.843749 1 1.04352976 -0.29206262 -0.63947289
C 6.016631 6.781866 7.446068 6 0.21980274 -1.45372128 -0.86747489
H 6.390482 7.712272 7.049460 1 -0.01565237 0.28145321 -0.88777222
H 5.365031 6.991194 8.284585 1 0.28789743 -0.61403232 0.86089337
6
energy=-372.603482 Lattice="12.718 0.0 0.0 0.0 12.718 0.0 0.0 0.0 12.718" Properties=species:S:1:pos:R:3:Z:I:1:force:R:3
C 6.197182 5.602366 6.730773 6 -0.06346824 0.79406007 -2.16817942
H 5.536163 5.181595 7.463845 1 0.50762869 0.30996933 1.60090984
H 6.650836 4.832016 6.094470 1 -0.69012212 -0.10476019 -0.40451349
C 6.205054 6.888973 6.244008 6 0.41134492 -1.59343153 1.00481046
H 6.298036 7.048380 5.171065 1 1.03432932 0.19338103 0.02028190
H 6.276370 7.732466 6.925568 1 -1.20081762 0.39115763 -0.05353452
6
energy=-372.762456 Lattice="12.718 0.0 0.0 0.0 12.718 0.0 0.0 0.0 12.718" Properties=species:S:1:pos:R:3:Z:I:1:force:R:3
C 6.449475 6.099085 5.671036 6 -0.97092432 1.02359907 1.09738207
H 6.392606 5.058003 5.403279 1 1.29991418 -0.67708199 0.09604208
H 6.560913 6.802781 4.854351 1 -0.61458665 0.18292744 -0.35632841
C 6.082675 6.500339 6.928035 6 -0.33777583 -0.42407857 -1.93672649
H 5.393931 7.364995 7.052302 1 1.41389126 0.11828626 0.44894939
H 6.273045 5.770161 7.698544 1 -0.79161032 -0.21592500 0.66354358
6
energy=-372.740510 Lattice="12.718 0.0 0.0 0.0 12.718 0.0 0.0 0.0 12.718" Properties=species:S:1:pos:R:3:Z:I:1:force:R:3
C 6.223716 6.273310 6.993902 6 0.32110942 0.71847369 -1.14058589
H 6.530106 5.377983 6.408385 1 -1.29071939 0.16517087 0.25532615
H 6.311953 7.207389 6.394860 1 0.78757266 -0.25460676 0.71566039
C 5.819252 6.261213 8.269843 6 0.66825179 -1.57152880 0.46272177
H 6.156938 6.900604 9.081614 1 -0.96356634 1.25459537 -0.35746330
H 5.446149 5.314875 8.675240 1 0.47761772 -0.30831766 0.06535029
6
energy=-372.489341 Lattice="12.718 0.0 0.0 0.0 12.718 0.0 0.0 0.0 12.718" Properties=species:S:1:pos:R:3:Z:I:1:force:R:3
C 6.172793 6.905264 6.581771 6 0.02224880 -0.05492600 0.84691993
H 5.708823 7.763945 6.052629 1 1.43029748 -0.11380945 -0.27669923
H 6.401803 7.102199 7.657638 1 -1.33000742 -0.51942646 -0.30290394
C 6.434176 5.695439 6.021503 6 -0.06936533 0.72570364 -0.49630040
H 6.219706 4.724478 6.482359 1 1.20111947 0.19001957 0.59973955
H 6.856531 5.676759 5.005962 1 -1.25193530 -0.23822471 -0.36838073
6
energy=-372.969531 Lattice="12.718 0.0 0.0 0.0 12.718 0.0 0.0 0.0 12.718" Properties=species:S:1:pos:R:3:Z:I:1:force:R:3
C 5.324448 6.914821 10.696151 6 0.08112093 -0.27744177 -1.20915314
H 4.801299 6.289746 11.461460 1 1.16638435 0.49751242 -0.04732273
H 5.735268 6.350409 9.797179 1 -1.18928004 0.61668159 0.68202622
C 5.396777 8.269169 10.745701 6 0.09823215 -1.33960535 0.99655156
H 5.489052 8.908133 9.875786 1 0.78993087 0.04522831 -0.13104357
H 5.449062 8.700553 11.753708 1 -0.94534491 0.46102792 -0.28948020
6
energy=-373.125993 Lattice="12.718 0.0 0.0 0.0 12.718 0.0 0.0 0.0 12.718" Properties=species:S:1:pos:R:3:Z:I:1:force:R:3
C 5.196659 8.473710 11.127871 6 0.48592548 -0.51194557 0.41269012
H 5.428120 7.785010 10.352795 1 -0.61461751 -0.76926845 -1.15899654
H 5.496085 9.483067 10.877049 1 0.27074558 0.37116420 0.50769965
C 4.851386 8.022960 12.335334 6 -0.43358909 0.96917752 0.66115759
H 4.939816 8.669696 13.196032 1 -0.26296696 0.73645857 0.25440981
H 4.330341 7.124642 12.652828 1 0.55188769 -0.79077471 -0.68573993
6
energy=-372.976983 Lattice="12.718 0.0 0.0 0.0 12.718 0.0 0.0 0.0 12.718" Properties=species:S:1:pos:R:3:Z:I:1:force:R:3
C 6.513786 5.853384 5.880705 6 -2.25574612 0.75262568 -0.42367902
H 6.512079 4.747505 6.053063 1 0.67411802 0.93794836 0.03019609
H 6.370413 6.216518 4.821423 1 0.33813167 -0.78355813 0.77011382
C 6.106050 6.767636 6.808302 6 2.12669001 0.61187928 -0.53664978
H 5.993169 7.845634 6.565982 1 -0.23403792 -0.59490382 -0.50530544
H 6.397108 6.740422 7.851225 1 -0.64855867 -0.91971305 0.65193658
6
energy=-373.097624 Lattice="12.718 0.0 0.0 0.0 12.718 0.0 0.0 0.0 12.718" Properties=species:S:1:pos:R:3:Z:I:1:force:R:3
C 6.054996 6.747244 6.771044 6 0.97264954 3.06603448 2.09203358
H 6.033270 7.847225 6.507245 1 0.13553323 -1.16404362 -0.28757552
H 6.140239 6.674271 7.880714 1 -0.88070939 -0.47252488 -0.54832208
C 6.395407 5.755638 5.988112 6 -0.98423596 -1.10633208 -1.98511932
H 6.158895 4.741333 6.328425 1 0.90301116 -0.12403268 0.00408549
H 6.534986 5.901867 4.889307 1 -0.14699264 -0.19221170 0.73219157
6
energy=-372.642448 Lattice="12.718 0.0 0.0 0.0 12.718 0.0 0.0 0.0 12.718" Properties=species:S:1:pos:R:3:Z:I:1:force:R:3
C 6.194091 5.567532 6.589972 6 0.29638207 1.95957179 0.70735161
H 5.758546 5.386847 7.534477 1 0.22561652 -0.89635868 1.64882650
H 6.792001 4.799776 6.166444 1 -0.36940660 -0.88125395 -1.44089455
C 6.199100 6.897736 6.348197 6 -0.27708696 -0.72264248 -0.58449547
H 6.146722 7.322084 5.355517 1 1.13666752 0.29143012 -0.42328359
H 6.125489 7.581740 7.185287 1 -1.01314598 0.24863768 0.10190009
6
energy=-372.674742 Lattice="12.718 0.0 0.0 0.0 12.718 0.0 0.0 0.0 12.718" Properties=species:S:1:pos:R:3:Z:I:1:force:R:3
C 5.998162 5.838876 7.809227 6 0.14238420 -1.47846611 0.19592643
H 6.327949 4.923363 8.301266 1 -1.08499654 -0.61186591 0.12115715
H 5.842050 5.728144 6.755262 1 0.94516442 0.64213450 -0.96252555
C 5.776797 6.891508 8.576490 6 0.42620848 1.17507880 0.56769021
H 6.086729 7.905903 8.289122 1 -1.35173737 0.12219177 -0.34212254
H 5.455196 6.727677 9.605962 1 0.92455239 0.14892046 0.41029282
6
energy=-372.760373 Lattice="12.718 0.0 0.0 0.0 12.718 0.0 0.0 0.0 12.718" Properties=species:S:1:pos:R:3:Z:I:1:force:R:3
C 6.156697 6.161647 6.923107 6 -0.81885632 -2.56556427 0.92954547
H 5.454860 6.595935 7.679808 1 1.41295538 0.93835562 -0.55305548
H 6.390287 5.109245 7.254281 1 -0.67424709 0.50681416 -0.49223342
C 6.434010 6.460321 5.648560 6 0.07598747 0.35601268 0.11520299
H 6.567023 5.702299 4.851424 1 0.82017787 0.28435084 0.68277904
H 6.579785 7.499619 5.391708 1 -0.81479809 0.47815354 -0.67338783
6
energy=-372.881027 Lattice="12.718 0.0 0.0 0.0 12.718 0.0 0.0 0.0 12.718" Properties=species:S:1:pos:R:3:Z:I:1:force:R:3
C 5.902191 5.649789 8.129682 6 -0.44252779 0.68793617 1.37165058
H 6.031972 5.206997 9.141001 1 -0.87118910 -0.12537171 -0.45773845
H 5.619552 4.947777 7.318823 1 1.14267208 0.55242299 0.01738787
C 5.928856 7.016093 8.091350 6 0.23344605 -2.26707389 -1.17319470
H 6.238507 7.444680 7.146393 1 -0.84126504 0.74391529 -0.35388484
H 5.672340 7.610412 8.947767 1 0.77943871 0.41993395 0.59595643
6
energy=-373.026107 Lattice="12.718 0.0 0.0 0.0 12.718 0.0 0.0 0.0 12.718" Properties=species:S:1:pos:R:3:Z:I:1:force:R:3
C 5.511851 6.125129 9.330441 6 2.22158384 1.41221593 -0.51175634
H 5.546314 6.351331 10.375748 1 -1.08261364 0.25885422 0.91439601
H 5.845686 5.117455 9.146652 1 -0.46001028 -0.62924195 -0.60536256
C 5.893918 7.130663 8.503237 6 0.07812354 -0.66805587 -0.20789287
H 6.339284 6.984490 7.520270 1 -0.34437997 -0.57105013 -0.33448328
H 5.912485 8.196305 8.702940 1 -0.41286958 0.18456420 0.73756312
6
energy=-373.191103 Lattice="12.718 0.0 0.0 0.0 12.718 0.0 0.0 0.0 12.718" Properties=species:S:1:pos:R:3:Z:I:1:force:R:3
C 6.273897 6.623140 6.049263 6 0.74546927 -0.93453805 1.30625092
H 6.758808 6.110773 5.227768 1 0.20362432 0.49213418 -0.56091330
H 6.294875 7.698400 6.203670 1 -0.61346514 0.20388246 -0.69797427
C 6.045460 5.846762 7.120867 6 0.05589222 -0.83145062 0.77525809
H 5.543076 6.211795 8.035216 1 0.39964845 0.09881065 -0.27803621
H 6.408720 4.777759 7.220077 1 -0.79445756 0.96898674 -0.54984675
6
energy=-372.983474 Lattice="12.718 0.0 0.0 0.0 12.718 0.0 0.0 0.0 12.718" Properties=species:S:1:pos:R:3:Z:I:1:force:R:3
C 5.624882 6.035347 8.890845 6 2.81423023 0.62268821 0.44435276
H 5.779114 5.251426 9.637021 1 -0.92418883 0.21468367 0.66001037
H 6.135917 5.606555 8.014093 1 -0.97987743 0.62067452 -0.75581900
C 5.743407 7.357915 9.222605 6 -1.25322960 -1.52581352 0.23167404
H 5.788456 8.158806 8.495476 1 0.28984478 0.10215771 -0.31021256
H 5.550261 7.671555 10.260438 1 0.05247265 -0.03342796 -0.25996597
6
energy=-373.099244 Lattice="12.718 0.0 0.0 0.0 12.718 0.0 0.0 0.0 12.718" Properties=species:S:1:pos:R:3:Z:I:1:force:R:3
C 6.165521 6.157342 6.940660 6 -1.16470234 0.58909878 -0.75947665
H 5.516514 6.899111 7.449949 1 1.06121433 -0.12773970 0.55590427
H 6.286933 5.159532 7.411457 1 -0.31772481 0.46499462 -0.53197602
C 6.425130 6.447147 5.642020 6 0.73472051 -1.79416541 0.45436105
H 6.671413 5.611685 4.952319 1 0.46256801 0.52079840 0.32482415
H 6.549645 7.440687 5.230608 1 -0.77393243 0.34929027 -0.03697866
6
energy=-372.819299 Lattice="12.718 0.0 0.0 0.0 12.718 0.0 0.0 0.0 12.718" Properties=species:S:1:pos:R:3:Z:I:1:force:R:3
C 5.441079 6.566439 10.272567 6 -0.32176351 1.00398154 0.22738390
H 5.321829 6.850936 11.380610 1 -0.59922739 -0.23514401 -1.63168545
H 5.192981 5.496286 10.071315 1 1.08217501 0.60606550 -0.14280637
C 5.735878 7.576559 9.371394 6 0.09765725 -1.74107054 2.21857874
H 6.376576 7.461173 8.493744 1 -0.95558305 -0.11134016 -0.51348464
H 5.530217 8.560572 9.781719 1 0.69654731 0.47140696 -0.16046523
6
energy=-372.447550 Lattice="12.718 0.0 0.0 0.0 12.718 0.0 0.0 0.0 12.718" Properties=species:S:1:pos:R:3:Z:I:1:force:R:3
C 5.994352 5.877002 7.759427 6 0.43965124 0.68036683 0.80705495
H 6.517311 4.988430 8.051644 1 -0.98307742 -1.51337451 0.03091857
H 5.887644 6.134538 6.719678 1 1.00881573 0.20103830 -0.63708948
C 5.775760 6.836875 8.684828 6 -0.45720520 0.63152098 -0.80472347
H 5.996009 7.857945 8.305159 1 -1.41405324 -0.06715983 0.42516615
H 5.272482 6.664777 9.653366 1 1.40605813 0.06738043 0.17698201
6
energy=-372.512023 Lattice="12.718 0.0 0.0 0.0 12.718 0.0 0.0 0.0 12.718" Properties=species:S:1:pos:R:3:Z:I:1:force:R:3
C 5.611750 7.955982 10.084865 6 -0.23697875 0.02006285 -0.63580187
H 6.147678 8.050270 9.088596 1 -1.52109297 0.49414993 0.73550881
H 5.225958 8.788753 10.695540 1 1.20343141 0.24447352 -0.16678090
C 5.336904 6.719440 10.524976 6 2.01996396 -1.57684636 -0.24216724
H 5.627441 6.353083 11.525981 1 -1.74874735 0.60522372 0.41740501
H 5.455598 5.871064 9.831159 1 0.28169129 0.21233933 -0.11060431
6
energy=-372.615024 Lattice="12.718 0.0 0.0 0.0 12.718 0.0 0.0 0.0 12.718" Properties=species:S:1:pos:R:3:Z:I:1:force:R:3
C 6.070897 5.792789 6.966342 6 0.44420364 2.56604404 -1.13124146
H 5.482041 6.162795 7.814321 1 0.77424045 -0.06665898 0.32281817
H 6.718947 4.963341 7.041509 1 -0.37041344 -2.07060599 -0.10237472
C 6.335146 6.667458 5.937118 6 -1.14946134 -0.06172657 0.96792384
H 6.443579 6.381934 4.879409 1 1.15917858 -0.09103974 0.48560460
H 6.242361 7.746318 6.156897 1 -0.85604118 -0.27559726 -0.54679587
6
energy=-372.776306 Lattice="12.718 0.0 0.0 0.0 12.718 0.0 0.0 0.0 12.718" Properties=species:S:1:pos:R:3:Z:I:1:force:R:3
C 5.457197 6.497434 10.107984 6 0.77933946 -1.80825969 0.32249730
H 5.542290 6.050306 11.097638 1 -1.29584412 0.91797293 0.77576409
H 5.469380 5.640513 9.447235 1 0.72624666 -0.10456118 -0.84928740
C 5.693836 7.729457 9.689016 6 -0.08081189 0.85893625 -0.70446066
H 6.198697 7.881995 8.716180 1 -1.03344588 0.09132411 -0.03766257
H 5.331761 8.619746 10.210276 1 0.90255144 0.04336117 0.48237684
6
energy=-372.463854 Lattice="12.718 0.0 0.0 0.0 12.718 0.0 0.0 0.0 12.718" Properties=species:S:1:pos:R:3:Z:I:1:force:R:3
C 4.972026 7.858890 11.959595 6 -0.98771518 -2.77758427 -0.39086092
H 5.287572 8.483150 12.718605 1 -0.68120656 1.85405724 1.84877928
H 4.454195 6.903549 12.071677 1 0.79862635 -0.43342917 1.28716715
C 5.325392 8.040058 10.715623 6 0.61117274 1.99427348 -1.75541680
H 5.635387 7.241154 10.070938 1 -1.02400222 -0.57352714 -0.90479756
H 5.343906 9.070631 10.338477 1 1.28511747 -0.05397572 -0.09238032
6
energy=-372.394034 Lattice="12.718 0.0 0.0 0.0 12.718 0.0 0.0 0.0 12.718" Properties=species:S:1:pos:R:3:Z:I:1:force:R:3
C 5.747336 7.450178 9.163816 6 1.04900775 0.94098741 -1.38430710
H 6.453773 7.596838 8.335327 1 -1.11640876 -0.24974120 -1.02534228
H 5.357073 8.403526 9.516830 1 0.74069627 0.05423900 1.22287102
C 5.525571 6.246818 9.683250 6 -0.71523153 -0.00241272 1.20912126
H 5.459397 6.245836 10.777198 1 -1.37165418 -0.39824462 -0.02742649
H 5.266538 5.349223 9.118576 1 1.41620629 -0.33098606 -0.00284570
6
energy=-372.655730 Lattice="12.718 0.0 0.0 0.0 12.718 0.0 0.0 0.0 12.718" Properties=species:S:1:pos:R:3:Z:I:1:force:R:3
C 5.217254 7.396663 11.155804 6 0.30394215 1.34352218 1.89750480
H 4.950673 8.360313 11.642192 1 0.88334118 -0.54418929 0.62806902
H 5.342831 6.501407 11.799475 1 -1.23228126 0.09185221 -0.77260060
C 5.619281 7.539637 9.904566 6 -0.45437596 -1.07312986 -1.70181234
H 5.357164 6.729296 9.199094 1 1.41224164 -0.15221713 0.07281061
H 6.040930 8.456721 9.488365 1 -0.91523676 0.33280075 -0.11381665
6
energy=-372.561766 Lattice="12.718 0.0 0.0 0.0 12.718 0.0 0.0 0.0 12.718" Properties=species:S:1:pos:R:3:Z:I:1:force:R:3
C 5.408117 6.956498 10.399245 6 0.57225341 0.24526748 -1.27187216
H 5.564903 7.866725 11.032079 1 -1.32259595 -0.42181292 -0.51740506
H 5.024681 6.035337 10.896542 1 1.16491574 0.32100503 -0.22685631
C 5.774760 7.060990 9.067505 6 0.09839207 0.36397899 1.54670426
H 6.369650 6.400328 8.439859 1 -1.09554733 -1.25496612 -0.05414336
H 5.703635 8.012460 8.545948 1 0.58277283 0.73743559 0.53073572
6
energy=-372.849698 Lattice="12.718 0.0 0.0 0.0 12.718 0.0 0.0 0.0 12.718" Properties=species:S:1:pos:R:3:Z:I:1:force:R:3
C 5.695553 7.053686 9.028849 6 0.35007240 0.67308804 0.70567525
H 5.953704 8.068085 8.617318 1 -1.24006605 -0.75282674 -0.09112305
H 5.466181 7.095896 10.116382 1 0.65986690 -0.42370011 -0.43267686
C 5.846854 5.948389 8.271646 6 0.93883179 1.36331660 -0.04491669
H 6.321235 5.020095 8.588991 1 -1.18522027 -0.49515626 0.29764963
H 5.881876 6.187193 7.213793 1 0.47634811 -0.37481672 -0.43261413
6
energy=-372.785386 Lattice="12.718 0.0 0.0 0.0 12.718 0.0 0.0 0.0 12.718" Properties=species:S:1:pos:R:3:Z:I:1:force:R:3
C 5.745399 7.535989 9.326886 6 -0.48127229 -2.49618403 -1.27726583
H 6.184586 7.719172 8.358006 1 -0.27687716 0.12305154 -0.84587966
H 5.353717 8.438451 9.719651 1 0.14161543 0.68561035 1.68088406
C 5.502388 6.210966 9.604694 6 1.34713149 1.42218102 0.81849996
H 5.555141 5.798644 10.629854 1 -1.23773149 0.31606388 -0.23348770
H 5.634286 5.462159 8.828305 1 0.51094233 -0.05154860 -0.14917088
6
energy=-372.530063 Lattice="12.718 0.0 0.0 0.0 12.718 0.0 0.0 0.0 12.718" Properties=species:S:1:pos:R:3:Z:I:1:force:R:3
C 6.343451 5.634285 6.101962 6 -0.11890846 2.63805657 1.86279385
H 6.270458 4.971358 6.932230 1 0.44609854 -0.81752500 0.82010073
H 6.919270 5.267243 5.300279 1 -0.51540114 -0.42240684 -2.02486706
C 6.134150 6.948865 6.454244 6 1.29495863 -0.39076939 -0.50373603
H 6.033957 7.825475 5.788162 1 0.45120167 -0.59585924 -0.25119747
H 6.451062 7.268575 7.469405 1 -1.55941015 -0.41143079 0.09387207
6
energy=-372.493760 Lattice="12.718 0.0 0.0 0.0 12.718 0.0 0.0 0.0 12.718" Properties=species:S:1:pos:R:3:Z:I:1:force:R:3
C 6.121453 6.891888 6.665646 6 0.27789686 -1.38077080 0.00744181
H 6.144410 7.383711 5.690347 1 1.02296760 0.70524382 0.48306743
H 6.144833 7.310041 7.669972 1 -1.29227285 0.92129068 -0.23670158
C 6.201681 5.544270 6.652105 6 0.19933777 -1.46705143 -0.39994310
H 5.636828 4.888834 7.387326 1 1.53675511 0.72730853 -0.07818422
H 6.848185 4.999146 5.883519 1 -1.74540286 0.48349167 0.22683831
6
energy=-372.591211 Lattice="12.718 0.0 0.0 0.0 12.718 0.0 0.0 0.0 12.718" Properties=species:S:1:pos:R:3:Z:I:1:force:R:3
C 5.802295 5.790324 8.455424 6 -0.14297606 0.95028864 -0.16041998
H 5.922749 5.984263 9.513567 1 -0.94982532 0.35515136 0.53908873
H 5.303384 4.852176 8.242532 1 1.13014052 -0.79074026 -0.61855696
C 6.077719 6.823610 7.613456 6 -0.53998347 -0.93297584 0.70630054
H 6.447864 6.705223 6.602342 1 -0.86549102 -0.01649827 -0.60766575
H 5.792856 7.807773 7.987469 1 1.36862696 0.42906343 0.15088478
6
energy=-373.076562 Lattice="12.718 0.0 0.0 0.0 12.718 0.0 0.0 0.0 12.718" Properties=species:S:1:pos:R:3:Z:I:1:force:R:3
C 6.065237 6.836507 6.914038 6 0.43980345 -1.32468729 -0.68433816
H 6.059148 7.709037 6.256197 1 0.72035472 -0.08024419 -0.16002866
H 5.927955 7.122898 7.965538 1 -0.62848348 -0.57982480 -0.15384567
C 6.268502 5.553990 6.448337 6 -0.55087930 3.29320910 0.72447054
H 5.905695 4.725563 6.969053 1 0.05894104 -1.47746492 1.49882412
H 6.676583 5.317365 5.495976 1 -0.03937647 0.17312381 -1.22541127
6
energy=-372.892392 Lattice="12.718 0.0 0.0 0.0 12.718 0.0 0.0 0.0 12.718" Properties=species:S:1:pos:R:3:Z:I:1:force:R:3
C 5.221520 7.885374 11.061308 6 -1.10282458 0.87650152 0.85343820
H 5.154700 6.827401 10.873890 1 -0.61838675 -0.63886200 0.43613037
H 5.265974 8.400330 10.137985 1 1.23901961 1.07112903 -0.95550952
C 4.889851 8.506630 12.222238 6 0.93377443 -1.37696865 -0.00651107
H 5.253594 9.445879 12.653616 1 -0.63353621 0.47962730 -0.98333710
H 4.452466 7.874178 12.980243 1 0.18356147 -0.41585515 0.64943027
6
energy=-372.620654 Lattice="12.718 0.0 0.0 0.0 12.718 0.0 0.0 0.0 12.718" Properties=species:S:1:pos:R:3:Z:I:1:force:R:3
C 6.264481 5.600982 6.816382 6 -0.16537347 1.73332329 0.61336178
H 6.283371 4.659334 7.326348 1 -1.11939587 -0.91986424 -0.08004724
H 6.456131 5.650067 5.748994 1 1.26710071 -0.07989966 -0.00291666
C 6.013097 6.745384 7.524847 6 -0.21563755 -0.76618209 -0.87137165
H 6.486884 7.693870 7.261110 1 -0.77745382 0.23311952 -0.63504648
H 5.195227 6.771779 8.254518 1 1.01216639 -0.20061561 0.97520470
6
energy=-372.705038 Lattice="12.718 0.0 0.0 0.0 12.718 0.0 0.0 0.0 12.718" Properties=species:S:1:pos:R:3:Z:I:1:force:R:3
C 5.273493 8.479542 11.167486 6 -0.38903390 -1.21248324 -0.94507289
H 5.729959 9.007036 10.308577 1 -1.08980091 0.18348948 0.11943246
H 4.725094 9.005763 11.945002 1 1.08623890 0.38398528 0.69750942
C 5.179394 7.119174 11.094608 6 0.67760135 1.36143609 -0.29726653
H 5.310758 6.512488 11.975987 1 -1.24359721 -0.43929129 0.48845441
H 5.161695 6.637309 10.118745 1 0.95496188 -0.27511338 -0.04949789
6
energy=-372.828310 Lattice="12.718 0.0 0.0 0.0 12.718 0.0 0.0 0.0 12.718" Properties=species:S:1:pos:R:3:Z:I:1:force:R:3
C 5.704876 7.092790 8.974355 6 0.53232466 -0.63001020 1.23161535
H 5.965494 8.106365 8.582819 1 -1.16369292 -0.75463320 -0.14792338
H 5.540813 7.007791 10.074339 1 0.50853577 0.39253574 -0.50838562
C 5.834475 5.928160 8.309148 6 1.24945830 0.81287747 -1.44610258
H 6.292130 4.983939 8.608512 1 -1.20979078 -0.28859779 1.16482678
H 5.922691 5.933453 7.220543 1 0.08586308 0.47756733 -0.29006332
6
energy=-372.635941 Lattice="12.718 0.0 0.0 0.0 12.718 0.0 0.0 0.0 12.718" Properties=species:S:1:pos:R:3:Z:I:1:force:R:3
C 5.875546 6.865641 8.129314 6 0.11621600 -0.27843267 -0.16380818
H 6.209807 7.783647 7.642254 1 -1.15936987 0.28988746 -0.42443801
H 5.393628 6.950988 9.110412 1 1.11763466 -0.04591994 0.41163854
C 6.089023 5.673903 7.518048 6 -0.36532008 1.53835846 1.00547021
H 6.358173 4.842430 8.136182 1 -0.92403405 -1.18968988 0.09201985
H 5.948360 5.639808 6.457972 1 1.21329468 -0.30940935 -0.90990326
6
energy=-372.546810 Lattice="12.718 0.0 0.0 0.0 12.718 0.0 0.0 0.0 12.718" Properties=species:S:1:pos:R:3:Z:I:1:force:R:3
C 5.647016 7.904506 9.966985 6 0.00071117 -1.82251544 -1.52246697
H 6.090206 7.752028 8.943096 1 -1.06993398 0.69638173 0.42932723
H 5.217069 8.858000 10.253038 1 1.13679711 0.47678057 0.67574090
C 5.394357 6.735974 10.598530 6 -1.16442517 0.24269740 1.85470002
H 5.237722 6.651912 11.712849 1 -0.45912171 0.65233819 -0.87804984
H 4.999212 5.821001 10.139207 1 1.55699537 -0.25380354 -0.55762794
6
energy=-373.119505 Lattice="12.718 0.0 0.0 0.0 12.718 0.0 0.0 0.0 12.718" Properties=species:S:1:pos:R:3:Z:I:1:force:R:3
C 5.932778 6.414226 7.642501 6 1.63423959 0.48135508 0.12109493
H 6.313893 7.446178 7.763786 1 -0.95809040 -0.10611310 0.51137170
H 5.652543 5.821038 8.524404 1 -0.01786661 0.17092963 -0.33580482
C 6.325519 5.925231 6.466757 6 -1.10148966 -1.07813632 -2.31637380
H 6.198151 4.885009 6.062373 1 -0.01162602 0.48542462 0.97184992
H 6.508601 6.566069 5.567566 1 0.45602455 0.05497537 1.03667108
6
energy=-372.710261 Lattice="12.718 0.0 0.0 0.0 12.718 0.0 0.0 0.0 12.718" Properties=species:S:1:pos:R:3:Z:I:1:force:R:3
C 6.024592 6.698851 7.163605 6 -0.08715789 -1.65561730 -1.21193971
H 5.683980 7.710415 6.908485 1 1.15144726 0.11500810 -0.27331206
H 5.990632 6.487718 8.235933 1 -0.81421187 -0.38067009 -0.08878128
C 6.292689 5.693314 6.244616 6 0.39948801 -0.01327102 0.73268368
H 6.124636 4.579397 6.422297 1 0.73966320 1.33905771 0.64182340
H 6.864240 5.810623 5.287555 1 -1.39074309 0.59127393 0.20339806
6
energy=-372.849072 Lattice="12.718 0.0 0.0 0.0 12.718 0.0 0.0 0.0 12.718" Properties=species:S:1:pos:R:3:Z:I:1:force:R:3
C 5.146747 8.380473 11.597405 6 -1.36205110 0.09476167 0.73123203
H 5.480835 9.374854 11.310433 1 -0.58814027 0.25409459 -0.47975997
H 4.460084 8.341918 12.493861 1 1.65942459 -0.19866363 -0.07449263
C 5.269425 7.308073 10.803915 6 0.30647983 0.11445274 -0.42904441
H 5.341546 6.301269 11.213735 1 -1.03118794 -0.21298160 -0.08559106
H 5.346083 7.414900 9.710043 1 1.01691574 -0.05172138 0.33960029
6
energy=-372.794475 Lattice="12.718 0.0 0.0 0.0 12.718 0.0 0.0 0.0 12.718" Properties=species:S:1:pos:R:3:Z:I:1:force:R:3
C 6.005089 5.905354 7.369197 6 0.09769890 0.24531581 0.02280056
H 5.383974 6.517470 7.999931 1 0.54131582 0.43771726 1.16040911
H 6.373243 4.953312 7.718455 1 -0.78039722 -0.83791592 -0.15745961
C 6.308959 6.421177 6.176380 6 -0.39039864 -0.62421133 0.46323393
H 6.383243 5.765659 5.328817 1 1.29442538 -0.06343996 -0.60804576
H 6.337575 7.486749 6.125123 1 -0.76179939 0.85376781 -0.87245460
6
energy=-373.068596 Lattice="12.718 0.0 0.0 0.0 12.718 0.0 0.0 0.0 12.718" Properties=species:S:1:pos:R:3:Z:I:1:force:R:3
C 6.138566 5.942695 6.845269 6 1.22007777 1.27927489 0.58610858
H 5.824684 6.480133 7.776631 1 0.35977061 -0.16125816 -0.71511635
H 6.569739 4.972151 7.086266 1 -0.77184881 -0.66122804 -0.59569469
C 6.424977 6.642115 5.714323 6 -1.36910776 -0.00824245 1.30689576
H 6.482701 6.181442 4.736641 1 0.85833615 -0.16532102 -0.18372242
H 6.318874 7.736908 5.770429 1 -0.29808414 -0.28975479 -0.39657855
6
energy=-372.975380 Lattice="12.718 0.0 0.0 0.0 12.718 0.0 0.0 0.0 12.718" Properties=species:S:1:pos:R:3:Z:I:1:force:R:3
C 6.350358 5.891609 5.986339 6 -0.30290394 0.69800667 0.74200856
H 6.336609 4.813194 5.923696 1 0.78375148 -0.38614038 0.38024586
H 6.686273 6.432652 5.127981 1 -0.63650327 0.26577872 -1.20230938
C 6.000181 6.596337 7.082723 6 0.65108195 -1.17930364 -0.61379013
H 5.644571 7.602334 7.030894 1 0.49897332 1.02665765 0.00640771
H 6.177677 6.158758 8.048929 1 -0.99378659 -0.42124162 0.69285058
6
energy=-373.037253 Lattice="12.718 0.0 0.0 0.0 12.718 0.0 0.0 0.0 12.718" Properties=species:S:1:pos:R:3:Z:I:1:force:R:3
C 6.155778 6.902511 6.548404 6 -0.73746131 -0.99878430 0.41695815
H 6.016534 7.707879 5.857997 1 0.72890570 0.69538312 -0.63391314
H 5.991395 7.182876 7.605083 1 -0.43394493 -0.30171043 -0.40585252
C 6.288304 5.607372 6.158201 6 0.89475071 1.68978883 1.49959648
H 6.171697 4.903575 6.978550 1 0.36228155 -0.61536981 -0.23419218
H 6.890123 5.388046 5.282280 1 -0.81548354 -0.47804298 -0.64238133
6
energy=-372.870842 Lattice="12.718 0.0 0.0 0.0 12.718 0.0 0.0 0.0 12.718" Properties=species:S:1:pos:R:3:Z:I:1:force:R:3
C 5.585433 6.591388 9.421640 6 -0.85666082 1.13485027 0.48921906
H 5.507702 7.610008 9.803831 1 -0.95134279 0.01057753 0.31669740
H 5.182149 5.790321 10.023599 1 0.97194608 -0.55763565 0.50378334
C 5.935778 6.535074 8.150580 6 1.17408430 -0.49799373 -1.25819646
H 6.513984 5.708335 7.716331 1 -1.06400192 -0.45475288 -0.25156874
H 5.822864 7.402286 7.499517 1 0.72786337 0.36865686 0.18758114
6
energy=-372.359192 Lattice="12.718 0.0 0.0 0.0 12.718 0.0 0.0 0.0 12.718" Properties=species:S:1:pos:R:3:Z:I:1:force:R:3
C 5.861605 6.750262 8.596194 6 -0.91310532 -0.06798876 1.28723863
H 6.379974 5.872455 8.298411 1 -0.51253590 -1.29790306 -1.13553418
H 5.499967 7.494374 7.906141 1 1.24601868 0.95859022 -0.37194479
C 5.468403 6.807452 9.889936 6 0.22770477 -0.41243404 0.78358796
H 5.607514 7.723849 10.472922 1 -1.48242047 0.42693147 -0.27393838
H 5.138403 5.914820 10.487866 1 1.43406775 0.39207654 -0.28934290
6
energy=-372.802154 Lattice="12.718 0.0 0.0 0.0 12.718 0.0 0.0 0.0 12.718" Properties=species:S:1:pos:R:3:Z:I:1:force:R:3
C 6.307907 6.226754 6.566946 6 -0.00440790 -0.31905819 0.22387897
H 6.489386 5.249353 6.102199 1 -0.80877862 0.53347755 -0.98726318
H 6.407934 7.224126 6.124356 1 1.06074536 -0.44924198 -0.26383394
C 5.963251 6.155930 7.849599 6 -0.62704623 -0.06245883 1.92972846
H 6.250838 6.943070 8.584920 1 -1.03865700 0.06916221 -0.60621565
H 5.354739 5.312423 8.287642 1 1.41760445 0.22845708 -0.29533255
6
energy=-372.842185 Lattice="12.718 0.0 0.0 0.0 12.718 0.0 0.0 0.0 12.718" Properties=species:S:1:pos:R:3:Z:I:1:force:R:3
C 4.705465 8.404926 12.724177 6 0.52824278 -0.95530280 0.89316691
H 5.006259 9.044203 13.577320 1 -0.87102147 0.44501508 -0.63817449
H 4.200455 7.445549 13.045357 1 1.04048300 0.65227031 -0.20897839
C 5.143168 8.525211 11.457251 6 -1.60592504 -0.37455601 -0.92861782
H 5.064074 7.612071 10.842035 1 -0.29327361 0.28457453 -0.02846625
H 5.133208 9.432020 10.817087 1 1.20233149 -0.05385179 0.90432808
6
energy=-372.664607 Lattice="12.718 0.0 0.0 0.0 12.718 0.0 0.0 0.0 12.718" Properties=species:S:1:pos:R:3:Z:I:1:force:R:3
C 6.041640 6.102231 7.074191 6 0.69132694 -1.19008429 0.12441577
H 5.414987 6.563419 7.860372 1 0.90824953 0.75848575 -0.45928060
H 6.546068 5.155336 7.417108 1 -1.44481240 0.10183067 -0.29481627
C 6.360768 6.413361 5.790758 6 -0.05947326 -0.09989874 1.27738410
H 6.561997 5.538474 5.172187 1 0.99705549 0.28153240 -0.19839675
H 6.559919 7.416746 5.420528 1 -1.09386839 0.15338390 -0.45793745
6
energy=-372.602668 Lattice="12.718 0.0 0.0 0.0 12.718 0.0 0.0 0.0 12.718" Properties=species:S:1:pos:R:3:Z:I:1:force:R:3
C 6.299453 6.053696 6.569063 6 0.51121229 0.26371670 0.31431913
H 6.615102 5.068844 6.265456 1 -1.14472434 -0.60084358 -0.90973562
H 6.504121 6.931090 5.971855 1 1.12109125 0.01440076 -0.39034516
C 5.948898 6.308394 7.828731 6 -0.17380824 -0.03196963 0.33834405
H 6.353152 7.175067 8.305655 1 -0.77657604 1.50208891 0.09939635
H 5.316476 5.711398 8.458702 1 0.46187947 -1.15316939 0.54254326
6
energy=-372.681228 Lattice="12.718 0.0 0.0 0.0 12.718 0.0 0.0 0.0 12.718" Properties=species:S:1:pos:R:3:Z:I:1:force:R:3
C 5.204189 8.116994 11.037633 6 0.68311380 0.60393611 -0.46107986
H 5.438683 7.093279 10.620712 1 -1.37858999 0.93891047 0.11896297
H 5.351631 9.001649 10.366062 1 0.95045781 -0.74264208 0.51633188
C 4.877948 8.319690 12.333443 6 -0.46358103 -0.94413290 -0.16786025
H 5.194841 9.159881 12.975336 1 -0.93502861 0.26362568 -0.69021005