6
energy=-372.298776 Lattice="12.718 0.0 0.0 0.0 12.718 0.0 0.0 0.0 12.718" Properties=species:S:1:pos:R:3:Z:I:1:force:R:3
C 5.053658 7.371252 11.587142 6 -0.61376133 2.45009337 -2.63086776
H 5.108025 6.742148 12.446157 1 -0.80782319 0.23497483 1.29528516
H 4.689193 6.825902 10.679620 1 1.60853111 -0.05884899 0.17914226
C 5.161319 8.758529 11.402963 6 -0.35459703 -0.90079435 1.62975404
H 5.644115 9.254857 10.542929 1 -1.15010669 -0.63919316 -0.54682621
H 4.797907 9.545241 12.136924 1 1.31862205 -1.08944712 0.07829169
6
energy=-372.495070 Lattice="12.718 0.0 0.0 0.0 12.718 0.0 0.0 0.0 12.718" Properties=species:S:1:pos:R:3:Z:I:1:force:R:3
C 4.786632 8.661549 12.638244 6 -0.29306997 1.83681541 -0.44693981
H 5.165852 9.706878 12.709949 1 -1.25053508 -0.01956457 0.22455363
H 4.046376 8.353128 13.417270 1 1.53446940 -0.69847873 -0.18673421
C 5.082211 8.162643 11.422518 6 0.24221095 -0.82683343 -0.47446349
H 5.316977 7.105903 11.243264 1 -1.21446556 -0.22504059 -0.16753114
H 5.183574 8.793162 10.502476 1 0.98071869 -0.07762372 1.05573994
6
energy=-373.095317 Lattice="12.718 0.0 0.0 0.0 12.718 0.0 0.0 0.0 12.718" Properties=species:S:1:pos:R:3:Z:I:1:force:R:3
C 6.152529 5.584842 7.598254 6 -2.77807381 -0.60928452 0.05523762
H 5.722846 5.153809 8.527436 1 1.07766992 0.16014745 0.09123926
H 5.991066 4.847048 6.769835 1 0.75986797 0.75981603 0.27800896
C 6.029824 6.914788 7.417221 6 1.38484703 -0.75487540 -0.00094925
H 6.190884 7.288343 6.416992 1 -0.04140970 0.51293956 -0.33817898
H 6.082654 7.623562 8.248904 1 -0.40215733 -0.06288049 -0.08314234
6
energy=-371.911490 Lattice="12.718 0.0 0.0 0.0 12.718 0.0 0.0 0.0 12.718" Properties=species:S:1:pos:R:3:Z:I:1:force:R:3
C 6.111872 6.874738 6.742186 6 0.09800075 0.61253646 -0.74265957
H 5.963420 7.602649 5.931854 1 1.65144542 -0.37770921 -0.78223247
H 6.178852 7.519580 7.622628 1 -1.53967332 -0.91085560 0.97128119
C 6.217675 5.523117 6.585797 6 -0.00334141 -0.11337287 0.43827776
H 5.600499 4.842955 7.214030 1 1.42103739 0.20427686 0.71646823
H 6.936727 5.014317 5.888289 1 -1.62927273 0.57776380 -0.59693499
6
energy=-372.262299 Lattice="12.718 0.0 0.0 0.0 12.718 0.0 0.0 0.0 12.718" Properties=species:S:1:pos:R:3:Z:I:1:force:R:3
C 5.752646 7.117980 8.920386 6 -0.10158950 -0.13081319 -1.14459321
H 5.991816 8.029692 8.353142 1 -0.99624817 -0.05704562 -0.31202982
H 5.283017 7.325895 9.897936 1 1.45391205 -0.53214983 0.36471484
C 5.882555 5.898206 8.314572 6 -1.21771595 -0.68913327 1.46816318
H 6.018381 4.976997 8.909110 1 -0.64905797 0.35208866 0.55291202
H 5.419240 5.542340 7.381871 1 1.51202828 1.06211730 -0.93822810
6
energy=-373.024715 Lattice="12.718 0.0 0.0 0.0 12.718 0.0 0.0 0.0 12.718" Properties=species:S:1:pos:R:3:Z:I:1:force:R:3
C 6.234683 6.557991 6.391143 6 1.37817913 -0.01386854 0.88250351
H 6.636062 6.211492 5.451805 1 0.29920155 -0.76881079 -0.26118776
H 6.414219 7.629600 6.439985 1 -1.13605714 0.46561992 0.25318545
C 6.047588 5.789767 7.491434 6 -0.75192891 0.56703150 -2.03957378
H 5.393162 6.129936 8.260231 1 0.22423532 0.62894319 1.29181160
H 6.180761 4.730800 7.442260 1 -0.01451492 -0.88843453 -0.13343161
6
energy=-372.613916 Lattice="12.718 0.0 0.0 0.0 12.718 0.0 0.0 0.0 12.718" Properties=species:S:1:pos:R:3:Z:I:1:force:R:3
C 5.092458 7.449937 11.369029 6 -0.58950553 -1.26737479 0.57862461
H 5.173333 6.711703 12.206434 1 -1.13614970 0.15541198 -0.66785481
H 4.909127 7.039915 10.324723 1 1.41567818 0.58215782 1.02137609
C 5.084802 8.754168 11.690375 6 0.45292431 0.20456483 -1.09661845
H 5.589071 9.385966 10.947314 1 -1.19792153 0.66527085 -0.20094523
H 4.650318 9.211137 12.587798 1 1.05401730 -0.34192508 0.36567747
6
energy=-373.220245 Lattice="12.718 0.0 0.0 0.0 12.718 0.0 0.0 0.0 12.718" Properties=species:S:1:pos:R:3:Z:I:1:force:R:3
C 5.372628 8.333883 10.718149 6 -0.30138236 -1.38589296 1.04427898
H 5.708010 8.357251 9.708873 1 -0.18019024 0.00920816 -1.09054601
H 5.178619 9.261087 11.205884 1 0.53084165 0.93136685 0.52381893
C 5.150023 7.178145 11.380241 6 -0.49883088 1.15614724 -0.03944024
H 4.968801 7.167393 12.461034 1 -0.27116673 0.08784437 -0.18481000
H 4.916087 6.273245 10.851484 1 0.72109108 -0.79861864 -0.26087563
6
energy=-372.984782 Lattice="12.718 0.0 0.0 0.0 12.718 0.0 0.0 0.0 12.718" Properties=species:S:1:pos:R:3:Z:I:1:force:R:3
C 5.545707 6.061110 9.259363 6 1.43331339 1.80707287 0.61180832
H 5.271674 6.114958 10.313730 1 0.05785089 -0.00278399 0.16961168
H 5.883772 5.088420 8.956688 1 -0.53226810 -0.64182186 -0.84481471
C 5.915879 7.211374 8.630895 6 -1.89869985 -0.11018625 -1.01960820
H 5.883967 7.334676 7.525131 1 1.07609486 -0.78326708 0.35715580
H 5.784468 8.225593 9.022262 1 -0.13447445 -0.27214529 0.72826343
6
energy=-372.553257 Lattice="12.718 0.0 0.0 0.0 12.718 0.0 0.0 0.0 12.718" Properties=species:S:1:pos:R:3:Z:I:1:force:R:3
C 5.061679 8.266362 11.802169 6 0.62204132 -0.86991281 -2.14168778
H 5.453161 9.270858 11.968787 1 -0.75615632 0.53963329 -0.87567003
H 4.438773 7.934897 12.607434 1 0.47695180 -1.00025189 1.05588855
C 5.303626 7.485696 10.672946 6 0.03795671 0.84628590 1.42493364
H 5.524761 6.405038 10.748145 1 -1.37002358 0.10853200 0.02679400
H 5.390749 7.871998 9.645279 1 0.99063390 0.37021855 0.50928808
6
energy=-372.667378 Lattice="12.718 0.0 0.0 0.0 12.718 0.0 0.0 0.0 12.718" Properties=species:S:1:pos:R:3:Z:I:1:force:R:3
C 4.717899 8.253739 12.716819 6 -0.12543496 1.38667252 0.22453306
H 4.963318 8.962937 13.492758 1 -0.69070730 0.75836799 0.51343990
H 4.014900 7.515716 13.078597 1 0.74684327 -1.34003473 -0.36461354
C 5.107286 8.651556 11.491462 6 -0.20952397 -0.20170010 0.27664061
H 5.333837 7.921147 10.720780 1 -0.82199821 0.15772906 -0.73397849
H 5.180162 9.746185 11.306321 1 1.10136625 -0.76610239 0.08623435
6
energy=-372.253264 Lattice="12.718 0.0 0.0 0.0 12.718 0.0 0.0 0.0 12.718" Properties=species:S:1:pos:R:3:Z:I:1:force:R:3
C 5.756606 6.607571 8.485968 6 0.95446360 -2.37445763 0.55275621
H 6.086388 7.534986 9.033072 1 -1.21342118 0.02738021 -1.63438614
H 5.350632 5.866382 9.243170 1 1.10099138 0.52998547 -0.28282104
C 6.156815 5.988396 7.303279 6 -0.85664179 2.10191228 1.16272824
H 6.498377 4.970176 7.242712 1 -1.03941239 -0.99146694 0.21284173
H 6.095782 6.464900 6.327406 1 1.05701469 0.71443449 -0.01939847
6
energy=-372.779616 Lattice="12.718 0.0 0.0 0.0 12.718 0.0 0.0 0.0 12.718" Properties=species:S:1:pos:R:3:Z:I:1:force:R:3
C 5.231464 7.305612 11.178602 6 -0.46044737 -0.73855145 -0.48904628
H 4.739629 7.754660 12.039091 1 0.97222530 0.97680650 0.11748201
H 5.281155 6.238781 11.288436 1 -0.83864869 -0.93983401 0.03642433
C 5.585163 7.710007 9.948738 6 0.33993608 -0.44026059 0.14626811
H 5.579434 6.990496 9.120257 1 0.64413328 -0.26979016 0.36052703
H 6.070066 8.623765 9.685609 1 -0.65370396 1.40846160 -0.17267438
6
energy=-372.505478 Lattice="12.718 0.0 0.0 0.0 12.718 0.0 0.0 0.0 12.718" Properties=species:S:1:pos:R:3:Z:I:1:force:R:3
C 5.549523 6.218979 9.410653 6 0.25090848 1.24687845 -0.49675086
H 5.508610 6.662701 10.399252 1 -1.18487780 0.22949015 0.30467543
H 5.258408 5.147893 9.351547 1 1.36195906 0.34003429 -0.11448822
C 5.947737 7.027062 8.369733 6 -0.82211751 -2.19206396 -0.21726094
H 6.425123 6.486381 7.549349 1 -0.60849725 -0.04674577 -0.64504139
H 5.569604 8.012763 8.067111 1 1.00059539 0.42165299 1.17549224
6
energy=-372.538450 Lattice="12.718 0.0 0.0 0.0 12.718 0.0 0.0 0.0 12.718" Properties=species:S:1:pos:R:3:Z:I:1:force:R:3
C 5.994195 5.779037 7.909310 6 -0.35328577 1.01200081 1.41489862
H 5.697185 6.122366 8.893287 1 1.10068131 0.44785975 0.85928283
H 6.084567 4.727874 7.957363 1 -0.87861188 -1.49692047 -1.23586950
C 6.189927 6.707699 6.972385 6 -0.00446395 -1.09785618 -0.62855290
H 5.954381 6.489382 5.935096 1 1.04135975 -0.10098272 -0.49358120
H 6.693003 7.612135 7.257189 1 -0.90469163 1.22584681 0.06801704
6
energy=-372.826352 Lattice="12.718 0.0 0.0 0.0 12.718 0.0 0.0 0.0 12.718" Properties=species:S:1:pos:R:3:Z:I:1:force:R:3
C 5.988160 6.947153 7.746491 6 -0.08560957 -1.08227065 -0.32219031
H 6.253092 7.443690 6.816015 1 -0.83241067 0.12938212 -0.40992155
H 5.617710 7.580753 8.542418 1 0.96514911 0.17492821 0.72908979
C 6.018815 5.591103 7.795151 6 -0.56685049 -0.35930832 -0.02064237
H 6.166274 4.981230 8.724185 1 -0.90028064 0.67153457 -0.47076315
H 5.732647 4.990875 6.884781 1 1.42106310 0.47218960 0.49400389
6
energy=-372.704634 Lattice="12.718 0.0 0.0 0.0 12.718 0.0 0.0 0.0 12.718" Properties=species:S:1:pos:R:3:Z:I:1:force:R:3
C 6.283893 6.942009 6.106941 6 0.16607281 1.07688316 -0.74717751
H 6.138289 7.322627 5.069441 1 1.13939187 -0.72209278 0.23245000
H 6.464604 7.777323 6.785915 1 -1.24419679 0.02092468 0.56311108
C 6.329630 5.666643 6.508149 6 -0.02612346 -0.10086393 -0.42106112
H 5.901134 5.381740 7.461535 1 0.99210612 -0.02797259 0.81068998
H 6.749965 4.875262 5.883430 1 -1.02799309 -0.23301565 -0.43387243
6
energy=-372.561353 Lattice="12.718 0.0 0.0 0.0 12.718 0.0 0.0 0.0 12.718" Properties=species:S:1:pos:R:3:Z:I:1:force:R:3
C 5.688219 6.014882 9.008718 6 -1.19285285 -1.02295321 -0.32715614
H 5.036997 5.508074 9.769604 1 1.71198209 0.09171749 0.38362995
H 5.894738 5.330681 8.159698 1 -0.46292026 0.81375319 -0.14265365
C 5.781289 7.358031 9.051665 6 -0.71995517 -1.09436308 0.89450286
H 5.540289 7.990394 8.218213 1 1.33285569 0.59499483 -0.68955339
H 5.751898 7.741606 10.071986 1 -0.67104401 0.62715524 -0.11925916
6
energy=-372.724752 Lattice="12.718 0.0 0.0 0.0 12.718 0.0 0.0 0.0 12.718" Properties=species:S:1:pos:R:3:Z:I:1:force:R:3
C 6.230469 6.542840 6.652780 6 1.36308983 0.67833875 2.45662964
H 6.763318 6.258808 5.729668 1 -1.38181621 -0.91549027 -0.09042062
H 6.371784 7.647390 6.746095 1 0.08409262 -0.55653727 0.30691280
C 6.008314 5.828875 7.834493 6 0.22833984 1.79700596 -3.20612423
H 6.102956 6.302269 8.799383 1 -0.67890850 0.35951658 0.29009212
H 5.612033 4.846250 7.758540 1 0.38560970 -1.36125972 0.23815374
6
energy=-373.241392 Lattice="12.718 0.0 0.0 0.0 12.718 0.0 0.0 0.0 12.718" Properties=species:S:1:pos:R:3:Z:I:1:force:R:3
C 5.673524 7.792461 9.817218 6 -0.40969221 -1.03241179 0.69412379
H 6.067747 7.635063 8.799369 1 -0.54297161 -0.28108554 0.29402797
H 5.557909 8.820631 10.099627 1 0.23366357 0.71624712 0.28524250
C 5.321645 6.814707 10.691954 6 1.32465592 -0.25852512 -0.20360066
H 5.254120 6.884124 11.798488 1 -0.63091574 0.77319401 -0.67729488
H 5.400157 5.753389 10.431262 1 0.02736016 0.08186398 -0.38776171
6
energy=-372.563513 Lattice="12.718 0.0 0.0 0.0 12.718 0.0 0.0 0.0 12.718" Properties=species:S:1:pos:R:3:Z:I:1:force:R:3
C 6.316279 6.258261 6.583188 6 -0.19444084 1.56055789 -0.81607181
H 6.542879 5.538331 5.789891 1 -1.15936884 -0.96440349 0.51008872
H 6.383619 7.223755 6.029213 1 0.85820605 0.13476447 1.15734332
C 5.927413 6.137138 7.875401 6 1.00056814 -2.18862176 0.03763892
H 6.367715 6.736876 8.714196 1 -1.41113710 0.39635383 -0.82917673
H 5.529895 5.110603 8.180070 1 0.90697529 1.06165296 -0.05054535
6
energy=-373.093205 Lattice="12.718 0.0 0.0 0.0 12.718 0.0 0.0 0.0 12.718" Properties=species:S:1:pos:R:3:Z:I:1:force:R:3
C 6.137835 6.674963 6.829342 6 -0.33202839 0.57420282 -0.72386942
H 5.653791 7.656432 6.655478 1 1.01796835 0.02451137 0.16408072
H 6.228958 6.383426 7.868358 1 -0.49156288 -0.54291042 0.18565178
C 6.486405 5.917940 5.771895 6 -0.76736686 0.38967153 0.24911436
H 6.432639 4.833668 5.825372 1 1.06541398 -0.22251731 0.12562573
H 6.601160 6.378479 4.784218 1 -0.49249722 -0.21360072 -0.00124956
6
energy=-372.765288 Lattice="12.718 0.0 0.0 0.0 12.718 0.0 0.0 0.0 12.718" Properties=species:S:1:pos:R:3:Z:I:1:force:R:3
C 5.117096 8.843009 11.434008 6 1.23640531 -0.93230736 -0.67722854
H 5.587401 8.775159 10.427374 1 -1.42094175 0.10192014 -0.03499634
H 5.144519 9.823688 11.882789 1 0.70191732 0.32467348 0.43443293
C 4.889619 7.738165 12.177947 6 -0.79755214 1.34524584 0.93725365
H 4.970449 7.899762 13.273022 1 -0.82740164 -0.25275042 -0.33549629
H 4.335877 6.862717 11.839727 1 1.10727876 -0.59783128 -0.31636779
6
energy=-372.844493 Lattice="12.718 0.0 0.0 0.0 12.718 0.0 0.0 0.0 12.718" Properties=species:S:1:pos:R:3:Z:I:1:force:R:3
C 5.807824 6.637393 8.443900 6 -0.50977864 0.64475086 -0.80090538
H 5.909826 7.749861 8.396613 1 -0.56594186 -0.62388943 -0.34014228
H 5.194491 6.344726 9.326665 1 1.39878756 -0.59008660 -0.11301601
C 6.157143 5.912626 7.338781 6 -0.78649433 0.19807690 0.92433744
H 6.351780 4.824459 7.336694 1 -0.71778310 0.32214609 0.04575538
H 6.070043 6.401510 6.354523 1 1.18179093 0.04893070 0.28801107
6
energy=-372.861456 Lattice="12.718 0.0 0.0 0.0 12.718 0.0 0.0 0.0 12.718" Properties=species:S:1:pos:R:3:Z:I:1:force:R:3
C 6.058813 6.711056 7.855149 6 -0.27496425 1.29047771 -3.09658024
H 6.374603 6.039315 7.060325 1 -0.36572220 0.31749547 -0.74313625
H 5.813208 7.771332 7.640098 1 1.22751546 -0.26046785 0.21935742
C 5.637155 6.146803 8.933258 6 0.28406442 -1.65070546 3.07112990
H 5.743169 6.650831 9.882659 1 -1.26383386 0.54269547 0.47433082
H 5.531495 5.066445 9.010811 1 0.39267561 -0.24354638 0.07557198
6
energy=-373.170631 Lattice="12.718 0.0 0.0 0.0 12.718 0.0 0.0 0.0 12.718" Properties=species:S:1:pos:R:3:Z:I:1:force:R:3
C 6.258252 5.978848 7.018431 6 -1.20162341 0.67647058 1.14082397
H 6.290345 4.904609 6.885770 1 -0.36904407 -0.31219437 -0.16775123
H 6.436515 6.582460 6.130122 1 0.61836875 0.12901651 0.09136524
C 5.816776 6.542665 8.186938 6 1.89236928 -1.07858626 -1.45273397
H 6.177972 7.549707 8.388509 1 -0.95361462 0.42496920 0.11151551
H 5.513827 5.884207 8.997325 1 0.01429946 0.15687957 0.28424954
6
energy=-372.890733 Lattice="12.718 0.0 0.0 0.0 12.718 0.0 0.0 0.0 12.718" Properties=species:S:1:pos:R:3:Z:I:1:force:R:3
C 5.469696 7.204323 10.265905 6 -0.60964551 1.71792237 2.43992208
H 5.531238 8.280211 10.618134 1 -0.67568588 -0.91244557 -0.81672642
H 5.045947 6.529805 11.030559 1 1.10898906 -0.05235541 0.10610693
C 5.777243 6.775647 9.065117 6 -0.43938590 -1.56420526 -0.22003774
H 5.923459 5.698772 8.970855 1 -0.44482585 -0.14874048 -0.46424283
H 5.577406 7.334981 8.187980 1 1.05758085 0.96528538 -1.04250646
6
energy=-372.636219 Lattice="12.718 0.0 0.0 0.0 12.718 0.0 0.0 0.0 12.718" Properties=species:S:1:pos:R:3:Z:I:1:force:R:3
C 5.869312 5.657775 8.294430 6 -0.30487340 1.74974854 -0.18090243
H 5.970621 5.256677 9.331586 1 -0.79183298 0.63993055 -0.56450204
H 5.470105 4.983455 7.521058 1 1.30524151 -0.40703472 0.02810835
C 5.992100 6.981632 7.898642 6 -0.42358595 -1.20063302 -0.34396551
H 6.268968 7.203542 6.840477 1 -0.95918774 -0.35030226 0.33445345
H 5.674461 7.899525 8.421883 1 1.17389352 -0.43022814 0.72810351
6
energy=-372.797304 Lattice="12.718 0.0 0.0 0.0 12.718 0.0 0.0 0.0 12.718" Properties=species:S:1:pos:R:3:Z:I:1:force:R:3
C 5.481350 7.946085 10.373282 6 -1.49368345 1.92549745 -1.35762983
H 5.235585 7.673173 9.301215 1 1.05827093 -0.95714269 1.28974289
H 5.622731 9.055891 10.366613 1 -0.14333499 -0.54269650 0.09176634
C 5.091773 7.449531 11.551814 6 0.70305581 -0.61777637 1.59243496
H 4.960286 8.129127 12.423063 1 0.54697688 -0.06268663 -0.50975293
H 5.106762 6.408348 11.951669 1 -0.67122913 0.26419492 -1.12010035
6
energy=-372.357709 Lattice="12.718 0.0 0.0 0.0 12.718 0.0 0.0 0.0 12.718" Properties=species:S:1:pos:R:3:Z:I:1:force:R:3
C 5.528687 7.483323 10.011818 6 0.88198826 -1.84589758 -1.65376610
H 5.988293 8.429087 9.856439 1 -0.73819098 1.48126501 -0.65169541
H 5.097178 7.269933 10.969488 1 0.66351375 -0.16564395 1.08410797
C 5.719482 6.418003 9.146195 6 -1.57519622 0.53139701 1.26448744
H 5.767126 5.486438 9.746775 1 -0.85540920 -0.22390879 -1.01865586
H 5.450718 6.395206 8.046787 1 1.62131002 0.22099419 0.97567624
6
energy=-373.009144 Lattice="12.718 0.0 0.0 0.0 12.718 0.0 0.0 0.0 12.718" Properties=species:S:1:pos:R:3:Z:I:1:force:R:3
C 5.590644 6.499857 9.815836 6 -1.10292177 -1.05068103 0.59432223
H 5.415676 5.782931 10.636107 1 -0.28124443 -0.17303074 -0.60315449
H 5.436976 6.198538 8.763796 1 1.14336525 -0.20021400 0.41556256
C 5.593302 7.779595 10.145395 6 -0.36058256 1.31246117 -0.68640944
H 5.872707 8.479397 9.364222 1 -0.33787045 0.47140696 -0.22794388
H 5.126140 8.235668 11.023497 1 0.93958924 -0.34446688 0.51749813
6
energy=-372.959467 Lattice="12.718 0.0 0.0 0.0 12.718 0.0 0.0 0.0 12.718" Properties=species:S:1:pos:R:3:Z:I:1:force:R:3
C 5.844231 6.350342 8.646561 6 -2.23224467 -0.45104329 -0.88455165
H 5.783406 5.220408 8.792883 1 0.24901563 1.38507380 -0.29895832
H 5.649044 6.720489 7.607871 1 1.00137701 -0.30354671 0.51253384
C 5.515387 7.146384 9.685640 6 2.10853750 -0.63228357 -0.19227700
H 5.732112 8.219909 9.762837 1 -0.81730749 -0.08096718 -0.39580413
H 5.566517 6.586779 10.594752 1 -0.30790885 0.08202442 1.25290718
6
energy=-372.804755 Lattice="12.718 0.0 0.0 0.0 12.718 0.0 0.0 0.0 12.718" Properties=species:S:1:pos:R:3:Z:I:1:force:R:3
C 5.032207 8.211166 11.850738 6 0.87766160 -0.52714389 -1.78340739
H 5.370523 9.254426 12.087492 1 -0.88590868 -0.53524955 -0.85859995
H 4.464960 7.750740 12.640901 1 0.46698312 -0.71168598 0.74171700
C 5.332462 7.555048 10.663695 6 -0.49497268 0.95685832 0.46199312
H 5.438523 6.458882 10.425648 1 -0.98030526 0.84312704 0.80036493
H 5.396734 8.152374 9.727382 1 1.01624468 -0.02577636 0.65110097
6
energy=-372.656401 Lattice="12.718 0.0 0.0 0.0 12.718 0.0 0.0 0.0 12.718" Properties=species:S:1:pos:R:3:Z:I:1:force:R:3
C 5.278927 7.596436 11.157947 6 -0.51332368 -2.23118486 -0.70058703
H 4.840624 8.452489 11.654916 1 1.11040266 0.98306405 -0.15790801
H 5.208464 6.697857 11.811966 1 -0.74999133 0.25980296 -0.44247843
C 5.578456 7.338171 9.849005 6 1.16322498 1.29200546 0.30528735
H 5.464401 6.368880 9.360679 1 0.53397069 -0.47810726 0.68156343
H 6.194578 8.021961 9.198529 1 -1.54353255 0.17843314 0.31249982
6
energy=-372.855557 Lattice="12.718 0.0 0.0 0.0 12.718 0.0 0.0 0.0 12.718" Properties=species:S:1:pos:R:3:Z:I:1:force:R:3
C 6.263518 6.696464 6.548112 6 -1.88546689 0.73619529 -0.41050417
H 6.314237 6.799792 5.454639 1 1.13135665 -0.90814205 0.10778998
H 5.937291 7.702415 6.887884 1 -0.07426328 -0.51737677 0.32279503
C 6.024881 5.621243 7.336074 6 1.78237175 0.71932936 1.02280460
H 5.666225 5.899110 8.354092 1 0.25845159 -0.48664744 -0.42842991
H 6.596980 4.655273 7.295187 1 -1.21090201 0.45303899 -0.62171427
6
energy=-372.825515 Lattice="12.718 0.0 0.0 0.0 12.718 0.0 0.0 0.0 12.718" Properties=species:S:1:pos:R:3:Z:I:1:force:R:3
C 5.990033 5.925876 7.387300 6 0.46000771 0.70535746 -0.66042791
H 5.425502 6.517799 8.090417 1 0.44669247 0.96537537 0.45565894
H 6.337196 5.025170 7.863357 1 -0.46188204 -1.21565701 -0.61796560
C 6.319262 6.395357 6.156965 6 -0.67489449 -0.60160309 0.72732652
H 6.402271 5.811530 5.249015 1 1.13174540 -0.71715935 0.11601186
H 6.370344 7.443988 5.940663 1 -0.89933345 0.86524934 -0.02198758
6
energy=-372.677759 Lattice="12.718 0.0 0.0 0.0 12.718 0.0 0.0 0.0 12.718" Properties=species:S:1:pos:R:3:Z:I:1:force:R:3
C 6.188471 5.496871 6.741360 6 0.64714816 -0.41252917 0.81146182
H 5.691068 4.911702 7.530346 1 0.85758693 -0.21205188 0.07999942
H 6.920797 4.991271 6.102378 1 -0.99215445 -0.06412284 -0.84184251
C 6.117800 6.817195 6.900001 6 -0.97548958 0.62323791 0.97965014
H 6.050224 7.632239 6.218798 1 1.40514385 0.42178001 -1.33533989
H 5.853356 7.234848 7.871085 1 -0.94241334 -0.35513491 0.30304278
6
energy=-372.383703 Lattice="12.718 0.0 0.0 0.0 12.718 0.0 0.0 0.0 12.718" Properties=species:S:1:pos:R:3:Z:I:1:force:R:3
C 6.014402 5.859323 7.368197 6 -0.03112580 -0.13726821 -0.44434659
H 5.271665 6.199737 8.094080 1 0.98460620 0.94042485 0.64226306
H 6.462956 4.886122 7.625556 1 -1.00892423 -0.43333712 -0.75762545
C 6.289250 6.486435 6.183910 6 -0.06680708 -0.63969247 1.50916407
H 6.366288 5.842934 5.317343 1 1.41904324 0.06154043 -0.38244930
H 6.501467 7.557348 6.159128 1 -1.29603695 0.20315895 -0.55976658
6
energy=-372.753980 Lattice="12.718 0.0 0.0 0.0 12.718 0.0 0.0 0.0 12.718" Properties=species:S:1:pos:R:3:Z:I:1:force:R:3
C 6.098673 6.854677 7.415524 6 -0.66251051 0.12129908 -0.98863770
H 6.331347 6.842656 6.335428 1 -0.89470289 0.08354291 0.09058466
H 5.792550 7.841908 7.801203 1 1.28597570 -0.23531216 0.54301378
C 5.925591 5.675844 8.030748 6 0.18689157 -0.88323473 0.43019369
H 6.160426 5.480404 9.091117 1 -1.09122838 0.54243939 0.04156294
H 5.603012 4.755666 7.492888 1 1.17694234 0.37899990 -0.11090564
6
energy=-373.062676 Lattice="12.718 0.0 0.0 0.0 12.718 0.0 0.0 0.0 12.718" Properties=species:S:1:pos:R:3:Z:I:1:force:R:3
C 6.095518 6.797322 7.249554 6 -2.54274983 0.42922695 -0.70799490
H 6.255587 7.716905 6.652880 1 0.50163287 -0.54477755 0.14297452
H 5.268559 6.964746 7.984214 1 1.12885753 -0.09703042 0.30406865
C 6.191474 5.550333 6.760385 6 2.11230725 -0.77460297 0.17964568
H 6.037981 4.662128 7.408830 1 -0.66003659 0.49760909 -0.35261779
H 6.830717 5.278467 5.881127 1 -0.53945280 0.48226679 0.43714441
6
energy=-373.179600 Lattice="12.718 0.0 0.0 0.0 12.718 0.0 0.0 0.0 12.718" Properties=species:S:1:pos:R:3:Z:I:1:force:R:3
C 6.021582 6.650643 6.934462 6 1.94514532 -0.43391922 -2.81967995
H 6.011747 7.728769 6.723154 1 -0.22278573 -0.14003266 0.41805910
H 6.156566 6.307905 7.937431 1 -0.61570920 -0.30417612 0.79498978
C 6.405829 5.859418 5.873532 6 -1.37872317 0.43348522 0.60779637
H 6.391487 4.765263 5.868956 1 0.41429500 -0.01943550 0.64559572
H 6.507580 6.208445 4.835415 1 -0.14201087 0.45869336 0.35279417
6
energy=-372.352899 Lattice="12.718 0.0 0.0 0.0 12.718 0.0 0.0 0.0 12.718" Properties=species:S:1:pos:R:3:Z:I:1:force:R:3
C 6.477971 6.021562 5.746536 6 0.14133930 1.06235436 0.27368281
H 6.452541 4.921600 5.780971 1 1.37269239 0.23492803 -0.18199258
H 6.802778 6.580740 4.834180 1 -1.32311377 -0.58827345 0.17286465
C 6.159137 6.645296 6.921434 6 -0.28852478 -1.91092803 -0.11794121
H 5.386739 7.398833 7.090782 1 1.16212712 1.12642938 -0.18544043
H 6.423171 6.014442 7.791565 1 -1.06498203 0.07257407 0.04834654
6
energy=-372.817367 Lattice="12.718 0.0 0.0 0.0 12.718 0.0 0.0 0.0 12.718" Properties=species:S:1:pos:R:3:Z:I:1:force:R:3
C 5.990756 6.026309 7.423541 6 0.00673424 0.10789025 -1.38655425
H 5.347645 6.669169 8.035509 1 0.97951901 0.45310121 0.27810409
H 6.283902 5.061356 7.848570 1 -0.83004011 -0.29228013 -0.25548402
C 6.308854 6.317700 6.127039 6 0.27745257 -0.74467943 0.29807797
H 6.468311 5.554005 5.340975 1 0.74696257 -0.22177066 0.85069226
H 6.559736 7.283193 5.696114 1 -1.17978084 0.69622130 0.21230540
6
energy=-372.396620 Lattice="12.718 0.0 0.0 0.0 12.718 0.0 0.0 0.0 12.718" Properties=species:S:1:pos:R:3:Z:I:1:force:R:3
C 5.033626 7.430057 11.507231 6 0.05266857 -2.90513268 -0.92270428
H 5.283070 6.927867 12.428979 1 -1.45899050 -0.76755917 0.67562520
H 4.867522 6.818105 10.560517 1 1.27317931 0.57776175 1.02170982
C 5.150298 8.728194 11.497715 6 -0.16121703 2.74080770 -0.31297393
H 5.638430 9.157346 10.609939 1 -1.30601335 0.71779030 -0.18989770
H 4.720779 9.359806 12.323131 1 1.60115924 -0.35427821 -0.26438673
6
energy=-372.888396 Lattice="12.718 0.0 0.0 0.0 12.718 0.0 0.0 0.0 12.718" Properties=species:S:1:pos:R:3:Z:I:1:force:R:3
C 5.257693 7.668487 11.086712 6 1.38266108 -0.32618324 0.15976229
H 5.315296 8.730342 11.249033 1 0.27877617 0.71498625 -0.11942834
H 5.376243 7.168400 12.037118 1 -1.20802494 -0.95639604 0.22172078
C 5.587338 7.185954 9.874985 6 -0.35285536 1.62228755 0.04320896
H 5.392715 6.226147 9.428328 1 0.51625834 -0.73989974 0.33860939
H 5.983878 7.978408 9.226752 1 -0.61672016 -0.31177065 -0.63870362
6
energy=-372.802847 Lattice="12.718 0.0 0.0 0.0 12.718 0.0 0.0 0.0 12.718" Properties=species:S:1:pos:R:3:Z:I:1:force:R:3
C 5.214318 7.938226 11.046450 6 -0.83143982 -0.77995756 1.42417928
H 5.274207 6.851823 10.970725 1 -0.84986076 -0.10494582 -0.56523172
H 5.308703 8.530196 10.176431 1 1.20961286 0.73980050 -0.91400057
C 4.873753 8.459263 12.241712 6 1.39352965 0.21571211 0.10692609
H 5.372745 9.364624 12.626582 1 -1.21295015 0.59003672 -0.57868220
H 4.404440 7.866002 13.007751 1 0.29061354 -0.65364431 0.51691963
6
energy=-372.754216 Lattice="12.718 0.0 0.0 0.0 12.718 0.0 0.0 0.0 12.718" Properties=species:S:1:pos:R:3:Z:I:1:force:R:3
C 6.241067 5.572749 6.504729 6 -0.52203407 -0.52361582 0.65275265
H 5.743047 4.938183 7.271107 1 1.12721666 0.63156777 0.52665178
H 6.725256 4.934738 5.769212 1 -0.63275922 0.24272774 -0.98146226
C 6.162969 6.921485 6.477337 6 -0.15609178 -1.24521495 -0.21517166
H 6.042575 7.399151 5.507968 1 1.16900740 0.58721159 -0.02922369
H 6.110613 7.472685 7.408659 1 -0.98445142 0.31789399 0.04697769
6
energy=-372.331462 Lattice="12.718 0.0 0.0 0.0 12.718 0.0 0.0 0.0 12.718" Properties=species:S:1:pos:R:3:Z:I:1:force:R:3
C 6.181511 6.444866 7.011168 6 0.25314020 1.38129839 2.11437751
H 6.699132 5.977840 6.191782 1 -1.18429621 -1.13320476 -0.72153999
H 6.201215 7.530067 6.928898 1 1.09802073 0.42713716 -0.01142445
C 5.854765 6.051344 8.283791 6 -0.26664776 -1.05878670 -1.69508119
H 6.134775 6.607917 9.162634 1 -0.90946669 1.12318773 0.21009476
H 5.272333 5.146719 8.477690 1 1.00974184 -0.74367258 0.11690043
6
energy=-372.466137 Lattice="12.718 0.0 0.0 0.0 12.718 0.0 0.0 0.0 12.718" Properties=species:S:1:pos:R:3:Z:I:1:force:R:3
C 5.594170 6.518403 9.761708 6 -0.38396368 -0.13993342 -0.05513375
H 5.692528 5.655730 10.467910 1 -1.22529351 0.63634592 -0.25577970
H 5.397789 6.219969 8.720469 1 1.39934704 0.21634049 -0.11674565
C 5.547711 7.803475 10.208634 6 0.29256038 -1.26837649 0.71431570
H 6.094893 8.660100 9.816654 1 -1.08313506 0.28624986 -0.92708030
H 5.092455 7.906013 11.195372 1 1.00046992 0.27481873 0.63104173
6
energy=-372.993681 Lattice="12.718 0.0 0.0 0.0 12.718 0.0 0.0 0.0 12.718" Properties=species:S:1:pos:R:3:Z:I:1:force:R:3
C 5.985087 5.670227 7.835841 6 1.49417453 2.17730119 -0.39595274
H 5.954123 5.811034 8.905957 1 0.18485885 -0.17885789 0.56259943
H 6.169031 4.658261 7.510367 1 -0.67079410 -0.35977267 -0.57054774
C 6.208662 6.805577 7.091558 6 -2.39391061 -0.59011128 0.00845842
H 5.857765 6.847328 6.028139 1 1.28870673 -0.33009080 0.35951761
H 6.176926 7.821051 7.548459 1 0.09677639 -0.72016188 0.03708202
6
energy=-373.214421 Lattice="12.718 0.0 0.0 0.0 12.718 0.0 0.0 0.0 12.718" Properties=species:S:1:pos:R:3:Z:I:1:force:R:3
C 6.031474 6.342660 7.050216 6 1.00327500 -0.60373505 0.96317090
H 5.724290 7.311014 7.413673 1 -0.02017289 0.65995329 -0.20632501
H 6.212994 5.685595 7.923343 1 -0.46890270 -0.43801293 -0.74318099
C 6.404011 6.138241 5.778040 6 -0.98411666 0.17224141 0.53666623
H 6.558364 5.146996 5.316934 1 0.44366577 0.56692711 0.24586397
H 6.327103 7.056480 5.197678 1 0.02455508 -0.35386992 -0.80752135
6
energy=-372.740726 Lattice="12.718 0.0 0.0 0.0 12.718 0.0 0.0 0.0 12.718" Properties=species:S:1:pos:R:3:Z:I:1:force:R:3
C 5.510367 8.039607 10.372221 6 0.03725788 -1.29862811 1.21677236
H 5.551487 8.780486 9.586961 1 0.97243459 -0.35320298 -0.86655083
H 5.586915 8.558956 11.345007 1 -1.20884255 -0.32723687 -0.00420736
C 5.442835 6.659903 10.314480 6 0.67290446 2.68773444 -0.93310183
H 4.922649 6.117339 11.075350 1 0.52832711 -0.56979389 0.98656641
H 5.940414 6.134166 9.493388 1 -1.00229335 -0.13050260 -0.40251060
6
energy=-372.285169 Lattice="12.718 0.0 0.0 0.0 12.718 0.0 0.0 0.0 12.718" Properties=species:S:1:pos:R:3:Z:I:1:force:R:3
C 5.278718 6.940118 10.886315 6 -0.32984809 -1.31301602 -0.77839690
H 4.651348 6.438479 11.608884 1 0.65430354 0.63922298 1.65818789
H 5.657380 6.173885 10.231614 1 -0.68642384 -0.48839168 -1.30066700
C 5.461803 8.195439 10.495809 6 0.87471615 1.66688491 -1.09519714
H 5.519471 8.476606 9.394592 1 0.98625994 -0.77686246 1.07473526
H 5.791678 9.028908 11.124910 1 -1.50096071 0.28236955 0.44163922
6
energy=-372.966080 Lattice="12.718 0.0 0.0 0.0 12.718 0.0 0.0 0.0 12.718" Properties=species:S:1:pos:R:3:Z:I:1:force:R:3
C 6.052953 5.699317 7.275485 6 -0.16892211 0.74985300 -0.51651391
H 5.366256 6.015388 8.065971 1 0.86919701 -0.36101965 0.80364669
H 6.507467 4.710637 7.182315 1 -0.87868799 -0.29482655 -0.01193918
C 6.255400 6.619742 6.318714 6 0.12450062 0.48953839 -0.46069625
H 6.463397 6.346376 5.271918 1 0.89574007 0.06607688 0.43326153
H 6.204347 7.713207 6.522541 1 -0.84210374 -0.65720632 -0.24191373
6
energy=-372.461899 Lattice="12.718 0.0 0.0 0.0 12.718 0.0 0.0 0.0 12.718" Properties=species:S:1:pos:R:3:Z:I:1:force:R:3
C 6.158861 6.685502 7.164581 6 -0.04255796 -1.34426368 -0.27875920
H 6.534587 6.303980 6.186639 1 -1.27389511 0.26694035 0.08931813
H 6.006311 7.783594 7.245536 1 1.23381107 -0.52237757 0.46608323
C 5.889591 5.811175 8.191923 6 -0.00416622 2.48009971 0.10364433
H 6.086240 6.278786 9.174271 1 -1.13230950 -0.18456009 0.07151014
H 5.289512 4.899967 8.192751 1 1.21968439 -0.69157479 -0.44841974
6
energy=-372.737750 Lattice="12.718 0.0 0.0 0.0 12.718 0.0 0.0 0.0 12.718" Properties=species:S:1:pos:R:3:Z:I:1:force:R:3
C 6.287112 5.959345 7.049486 6 -1.75454005 -1.28679743 -1.11514326
H 6.141187 4.879729 7.036645 1 -0.09371266 -0.33226441 -0.00356252
H 6.182868 6.321819 6.027090 1 1.43185300 0.84632703 0.00531139
C 5.845667 6.570798 8.136396 6 0.51635605 0.42379061 1.34844687
H 6.080639 7.559534 8.482279 1 -0.40338066 1.21804197 -0.74936295
H 5.379742 6.047727 8.954715 1 0.30251827 -0.87641050 0.51066722
6
energy=-372.708407 Lattice="12.718 0.0 0.0 0.0 12.718 0.0 0.0 0.0 12.718" Properties=species:S:1:pos:R:3:Z:I:1:force:R:3
C 6.019381 5.859567 7.783629 6 -0.25201354 0.27764592 0.30487289
H 6.328126 4.854040 7.988250 1 -0.68073913 -0.87590194 0.85823485
H 5.814831 5.975438 6.741030 1 1.00462020 0.77909058 -1.10749217
C 5.784019 6.858631 8.649215 6 -0.65555824 0.95995702 0.03613688
H 5.880076 7.925518 8.336480 1 -0.79050937 -0.66791703 -0.33049138
H 5.287508 6.784661 9.633405 1 1.37096975 -0.47271514 0.24751976
6
energy=-372.262001 Lattice="12.718 0.0 0.0 0.0 12.718 0.0 0.0 0.0 12.718" Properties=species:S:1:pos:R:3:Z:I:1:force:R:3
C 5.584597 6.569292 9.460051 6 -0.26851078 0.86567511 -1.63214774
H 5.494238 7.498793 10.037214 1 -0.72742217 0.34896323 -0.68740343
H 5.009127 5.795024 9.938742 1 1.24750735 -1.39716725 0.64279116
C 5.963074 6.570786 8.124613 6 -0.34636795 -0.32619506 1.79402142
H 6.540826 5.755619 7.655790 1 -1.21123471 -0.26595767 -0.09904462