ITEM: TIMESTEP
94000
ITEM: NUMBER OF ATOMS
6
ITEM: BOX BOUNDS pp pp pp
0.0000000000000000e+00 1.0000000000000000e+01
0.0000000000000000e+00 1.0000000000000000e+01
0.0000000000000000e+00 1.0000000000000000e+01
ITEM: ATOMS id type x y z vx vy vz
3 2 4.96242 3.47988 4.57325 -31.1187 2.64966 34.4311
2 1 5.29101 4.54007 4.64626 -6.52011 -7.1532 -3.12234
4 2 6.14691 4.8231 4.12358 -46.2457 0.561386 12.2761
5 2 3.6184 5.41089 5.57576 -7.6173 4.1817 48.9661
1 1 4.7209 5.4487 5.38422 10.9221 4.83086 -1.41358
6 2 5.13267 6.41947 5.36597 32.5267 20.2805 -41.6229
ITEM: TIMESTEP
94100
ITEM: NUMBER OF ATOMS
6
ITEM: BOX BOUNDS pp pp pp
0.0000000000000000e+00 1.0000000000000000e+01
0.0000000000000000e+00 1.0000000000000000e+01
0.0000000000000000e+00 1.0000000000000000e+01
ITEM: ATOMS id type x y z vx vy vz
3 2 4.66761 3.92425 5.88737 10.845 0.59001 14.1885
2 1 4.46667 4.70307 5.2211 3.66041 11.5664 11.6768
4 2 3.45309 5.14203 5.24305 -13.7802 36.4553 17.5446
5 2 6.51544 4.97028 5.10148 -16.2779 -42.5243 6.62192
1 1 5.5193 5.26845 4.7448 -2.50064 -11.8612 -16.6601
6 2 5.53346 6.30233 4.17625 5.39314 8.99245 21.0273
ITEM: TIMESTEP
94200
ITEM: NUMBER OF ATOMS
6
ITEM: BOX BOUNDS pp pp pp
0.0000000000000000e+00 1.0000000000000000e+01
0.0000000000000000e+00 1.0000000000000000e+01
0.0000000000000000e+00 1.0000000000000000e+01
ITEM: ATOMS id type x y z vx vy vz
3 2 4.3035 5.98361 6.0491 19.4067 -0.357769 13.6187
2 1 5.16254 5.40516 5.47259 13.9228 1.35008 -14.0748
4 2 6.11569 5.55177 5.98705 9.96693 -28.0416 0.468041
5 2 3.78508 4.60373 4.16799 -2.11089 3.68722 -8.80002
1 1 4.85427 4.57553 4.51558 -15.9576 3.63695 8.04026
6 2 5.5979 4.0906 3.93859 -3.01542 -34.7138 66.621
ITEM: TIMESTEP
94300
ITEM: NUMBER OF ATOMS
6
ITEM: BOX BOUNDS pp pp pp
0.0000000000000000e+00 1.0000000000000000e+01
0.0000000000000000e+00 1.0000000000000000e+01
0.0000000000000000e+00 1.0000000000000000e+01
ITEM: ATOMS id type x y z vx vy vz
3 2 5.75148 4.46968 3.67619 -36.696 19.4411 17.7409
2 1 5.57384 4.85487 4.68602 -7.67966 -16.794 -3.25832
4 2 6.33309 4.73532 5.51507 -17.0768 18.4219 -21.3293
5 2 3.5362 5.27268 4.72829 -26.1823 2.08958 14.0343
1 1 4.43239 5.1681 5.28674 13.8958 8.73125 2.44118
6 2 4.30739 5.2482 6.40686 5.88367 56.124 -0.708708
ITEM: TIMESTEP
94400
ITEM: NUMBER OF ATOMS
6
ITEM: BOX BOUNDS pp pp pp
0.0000000000000000e+00 1.0000000000000000e+01
0.0000000000000000e+00 1.0000000000000000e+01
0.0000000000000000e+00 1.0000000000000000e+01
ITEM: ATOMS id type x y z vx vy vz
3 2 4.67283 3.81024 5.74879 -12.9454 2.28208 2.06162
2 1 4.63138 4.42303 4.89563 -8.6875 6.09983 10.1251
4 2 4.34969 4.03187 3.98735 -8.11738 -1.67821 55.504
5 2 5.85826 5.83602 6.10609 27.0854 -51.7152 -28.6692
1 1 5.34177 5.57495 5.09101 8.21635 -4.7651 -12.6396
6 2 5.44148 6.34544 4.31874 -0.408298 35.2066 1.06661
ITEM: TIMESTEP
94500
ITEM: NUMBER OF ATOMS
6
ITEM: BOX BOUNDS pp pp pp
0.0000000000000000e+00 1.0000000000000000e+01
0.0000000000000000e+00 1.0000000000000000e+01
0.0000000000000000e+00 1.0000000000000000e+01
ITEM: ATOMS id type x y z vx vy vz
3 2 4.08092 4.63317 6.11177 -20.9399 21.9632 9.69148
2 1 4.79942 5.25484 5.60521 16.4758 4.66503 0.255886
4 2 5.07258 6.13258 6.09358 6.68573 56.3384 9.67069
5 2 4.70944 3.89613 3.94696 -38.2776 26.157 -40.0529
1 1 5.21822 4.74378 4.40053 -11.1879 -10.0897 -1.33422
6 2 5.92926 5.35416 3.78104 -10.4798 -39.8182 33.5402
ITEM: TIMESTEP
94600
ITEM: NUMBER OF ATOMS
6
ITEM: BOX BOUNDS pp pp pp
0.0000000000000000e+00 1.0000000000000000e+01
0.0000000000000000e+00 1.0000000000000000e+01
0.0000000000000000e+00 1.0000000000000000e+01
ITEM: ATOMS id type x y z vx vy vz
3 2 6.15635 6.07852 4.47916 25.8617 -3.80384 -31.4113
2 1 5.64757 5.22016 4.94226 1.50922 -9.29343 -12.8453
4 2 6.18508 4.60884 5.76744 31.6856 -19.9641 29.409
5 2 3.59307 5.04077 4.31391 1.35749 -15.4088 16.9179
1 1 4.35245 4.79497 5.02988 -3.89551 11.3493 9.36814
6 2 4.0677 4.09118 5.77329 -30.4694 14.6791 26.5189
ITEM: TIMESTEP
94700
ITEM: NUMBER OF ATOMS
6
ITEM: BOX BOUNDS pp pp pp
0.0000000000000000e+00 1.0000000000000000e+01
0.0000000000000000e+00 1.0000000000000000e+01
0.0000000000000000e+00 1.0000000000000000e+01
ITEM: ATOMS id type x y z vx vy vz
3 2 4.30437 3.53909 4.96566 -16.8568 -7.09024 9.96999
2 1 5.06929 4.40827 4.6831 -8.01196 -8.7634 2.5894
4 2 5.87005 4.10816 3.90661 -46.4651 -23.702 -2.60318
5 2 4.21679 5.71054 6.17352 30.0528 -3.94804 48.9972
1 1 4.95732 5.60245 5.32723 11.2543 10.1134 -6.83799
6 2 5.29404 6.514 4.83285 -5.36677 18.654 -5.73745
ITEM: TIMESTEP
94800
ITEM: NUMBER OF ATOMS
6
ITEM: BOX BOUNDS pp pp pp
0.0000000000000000e+00 1.0000000000000000e+01
0.0000000000000000e+00 1.0000000000000000e+01
0.0000000000000000e+00 1.0000000000000000e+01
ITEM: ATOMS id type x y z vx vy vz
3 2 4.53701 4.06125 6.12356 -40.3024 35.2854 -31.7026
2 1 4.50495 4.94829 5.45683 0.266798 9.26868 18.7589
4 2 3.6023 5.57676 5.56966 25.0713 27.3411 8.28524
5 2 6.24004 4.24971 4.4849 5.9593 17.5685 -50.401
1 1 5.48805 5.06096 4.53344 0.0700659 -14.9946 -12.2617
6 2 5.70643 6.00172 3.93963 5.25769 -11.965 -3.60263
ITEM: TIMESTEP
94900
ITEM: NUMBER OF ATOMS
6
ITEM: BOX BOUNDS pp pp pp
0.0000000000000000e+00 1.0000000000000000e+01
0.0000000000000000e+00 1.0000000000000000e+01
0.0000000000000000e+00 1.0000000000000000e+01
ITEM: ATOMS id type x y z vx vy vz
3 2 5.00658 6.20725 5.90379 53.6005 40.0583 -6.16556
2 1 5.38701 5.43115 5.32007 8.92895 0.0264382 -7.6401
4 2 6.37539 5.1668 5.51104 -14.3321 -16.6359 10.7083
5 2 3.65651 4.77594 4.1856 -4.54646 -8.56155 19.3914
1 1 4.6133 4.58745 4.68044 -6.20576 -1.49872 3.13016
6 2 4.96019 3.62798 4.39532 -67.1717 2.68301 29.8068
ITEM: TIMESTEP
95000
ITEM: NUMBER OF ATOMS
6
ITEM: BOX BOUNDS pp pp pp
0.0000000000000000e+00 1.0000000000000000e+01
0.0000000000000000e+00 1.0000000000000000e+01
0.0000000000000000e+00 1.0000000000000000e+01
ITEM: ATOMS id type x y z vx vy vz
3 2 5.02347 4.27391 3.66592 -43.1794 -13.5303 -6.32531
2 1 5.41215 4.6015 4.64618 -10.2791 -12.5774 8.39975
4 2 6.46989 4.28229 4.9026 52.276 -4.01443 -70.5699
5 2 3.6429 5.62293 5.03388 -11.2851 22.4759 8.98716
1 1 4.5866 5.39405 5.36165 9.97838 9.35627 -3.32634
6 2 4.88098 5.8735 6.30603 5.77218 33.4516 7.45292
ITEM: TIMESTEP
95100
ITEM: NUMBER OF ATOMS
6
ITEM: BOX BOUNDS pp pp pp
0.0000000000000000e+00 1.0000000000000000e+01
0.0000000000000000e+00 1.0000000000000000e+01
0.0000000000000000e+00 1.0000000000000000e+01
ITEM: ATOMS id type x y z vx vy vz
3 2 4.45622 3.9126 6.05365 11.9872 -3.52188 -5.78357
2 1 4.48274 4.5944 5.15245 -2.3926 8.00854 9.11541
4 2 3.86855 4.14072 4.22789 -56.5202 40.4363 21.2281
5 2 6.26433 5.59895 5.71334 28.7062 15.028 -2.54711
1 1 5.49202 5.43411 4.85037 3.15014 -11.639 -8.13309
6 2 5.71405 6.00762 3.97322 6.79999 -8.68112 -24.6029
ITEM: TIMESTEP
95200
ITEM: NUMBER OF ATOMS
6
ITEM: BOX BOUNDS pp pp pp
0.0000000000000000e+00 1.0000000000000000e+01
0.0000000000000000e+00 1.0000000000000000e+01
0.0000000000000000e+00 1.0000000000000000e+01
ITEM: ATOMS id type x y z vx vy vz
3 2 4.43253 5.26852 6.47966 -1.68503 59.7831 -14.4463
2 1 5.07025 5.381 5.55596 11.9716 -0.513625 0.619552
4 2 5.60574 6.36311 5.45002 9.79312 -60.2407 -15.8274
5 2 4.2469 3.77001 4.21856 -16.7517 16.6364 46.0235
1 1 4.95394 4.5818 4.47307 -10.7864 1.23755 -1.82654
6 2 5.42895 5.04125 3.50764 -5.47909 -24.8051 -1.36724
ITEM: TIMESTEP
95300
ITEM: NUMBER OF ATOMS
6
ITEM: BOX BOUNDS pp pp pp
0.0000000000000000e+00 1.0000000000000000e+01
0.0000000000000000e+00 1.0000000000000000e+01
0.0000000000000000e+00 1.0000000000000000e+01
ITEM: ATOMS id type x y z vx vy vz
3 2 6.03746 5.66979 4.05659 -52.756 -66.1766 -37.7725
2 1 5.64928 4.97924 4.77165 -1.24386 -9.48084 -4.30134
4 2 6.39445 4.4036 5.17525 10.9497 -7.65061 -6.43981
5 2 3.55126 5.64827 4.81135 12.9362 1.12598 -4.3476
1 1 4.34938 5.02718 5.24026 2.2205 13.6659 10.4652
6 2 4.03518 4.20148 5.81668 17.2322 22.8318 -24.8887
ITEM: TIMESTEP
95400
ITEM: NUMBER OF ATOMS
6
ITEM: BOX BOUNDS pp pp pp
0.0000000000000000e+00 1.0000000000000000e+01
0.0000000000000000e+00 1.0000000000000000e+01
0.0000000000000000e+00 1.0000000000000000e+01
ITEM: ATOMS id type x y z vx vy vz
3 2 3.83193 3.98829 5.15805 -36.3818 -6.68659 79.4008
2 1 4.75815 4.38031 4.86364 -4.52358 4.3957 5.27774
4 2 5.30339 3.70029 4.18598 -12.4059 14.846 -10.0102
5 2 4.56639 6.28827 5.61306 25.6227 2.22172 44.4495
1 1 5.25254 5.61623 5.15603 2.49186 -2.45446 -14.1584
6 2 6.17333 6.06396 4.81032 47.3752 -33.5132 -8.017
ITEM: TIMESTEP
95500
ITEM: NUMBER OF ATOMS
6
ITEM: BOX BOUNDS pp pp pp
0.0000000000000000e+00 1.0000000000000000e+01
0.0000000000000000e+00 1.0000000000000000e+01
0.0000000000000000e+00 1.0000000000000000e+01
ITEM: ATOMS id type x y z vx vy vz
3 2 4.72374 4.663 6.59378 1.123 -6.99877 12.0472
2 1 4.62189 5.18309 5.53322 15.157 5.96967 0.415789
4 2 3.89828 6.01076 5.47873 10.7084 49.9716 -21.8494
5 2 6.40849 4.36979 4.41553 -10.2529 -34.4649 -3.65351
1 1 5.35787 4.78206 4.46751 -13.8036 -6.54455 1.39165
6 2 5.213 5.3713 3.50498 -17.7046 -1.65766 -8.0818
ITEM: TIMESTEP
95600
ITEM: NUMBER OF ATOMS
6
ITEM: BOX BOUNDS pp pp pp
0.0000000000000000e+00 1.0000000000000000e+01
0.0000000000000000e+00 1.0000000000000000e+01
0.0000000000000000e+00 1.0000000000000000e+01
ITEM: ATOMS id type x y z vx vy vz
3 2 5.75342 6.03095 5.90387 -0.61263 5.19843 -36.6028
2 1 5.59162 5.30436 5.12285 4.16681 -10.7961 -9.55843
4 2 6.62652 4.7779 4.7521 -8.11918 -27.9603 10.9452
5 2 3.48663 4.85436 5.50973 25.5041 6.75209 16.0264
1 1 4.39641 4.73093 4.85513 -6.49901 12.5605 5.02472
6 2 4.27838 3.91583 4.09846 11.0184 -5.01513 63.6553
ITEM: TIMESTEP
95700
ITEM: NUMBER OF ATOMS
6
ITEM: BOX BOUNDS pp pp pp
0.0000000000000000e+00 1.0000000000000000e+01
0.0000000000000000e+00 1.0000000000000000e+01
0.0000000000000000e+00 1.0000000000000000e+01
ITEM: ATOMS id type x y z vx vy vz
3 2 4.73288 4.40484 3.52796 6.98961 -13.3068 9.5987
2 1 5.11935 4.45416 4.61833 -15.4587 -5.52462 4.09061
4 2 5.84768 3.71637 4.87237 -33.9275 41.3284 -4.37601
5 2 4.32127 6.27464 4.92743 17.9661 -17.3717 1.45282
1 1 4.89067 5.54173 5.40094 10.6536 2.51763 -4.33038
6 2 4.98113 5.65269 6.44437 66.2298 25.1818 -3.81844
ITEM: TIMESTEP
95800
ITEM: NUMBER OF ATOMS
6
ITEM: BOX BOUNDS pp pp pp
0.0000000000000000e+00 1.0000000000000000e+01
0.0000000000000000e+00 1.0000000000000000e+01
0.0000000000000000e+00 1.0000000000000000e+01
ITEM: ATOMS id type x y z vx vy vz
3 2 4.52521 4.96961 6.36949 -5.0396 17.09 -32.8449
2 1 4.4658 4.7771 5.35141 6.9706 7.36662 12.9663
4 2 3.76119 3.99435 5.04948 -38.1087 23.2303 -7.58403
5 2 6.19254 6.04017 5.00375 60.5267 -7.3742 11.7873
1 1 5.513 5.24621 4.63658 -5.26353 -9.03472 -8.76087
6 2 5.77605 4.71778 3.72213 -37.72 -13.0688 -21.4712
ITEM: TIMESTEP
95900
ITEM: NUMBER OF ATOMS
6
ITEM: BOX BOUNDS pp pp pp
0.0000000000000000e+00 1.0000000000000000e+01
0.0000000000000000e+00 1.0000000000000000e+01
0.0000000000000000e+00 1.0000000000000000e+01
ITEM: ATOMS id type x y z vx vy vz
3 2 5.549 5.30523 6.40402 24.6131 -25.2052 27.2269
2 1 5.34725 5.43645 5.35849 12.4489 1.98179 -16.3394
4 2 5.41877 6.43596 5.00551 9.96143 -9.92795 21.1648
5 2 4.50279 3.45815 5.01174 -44.316 25.7169 36.0883
1 1 4.66972 4.56122 4.64121 -13.3044 -0.489707 11.4058
6 2 4.3296 4.82806 3.58407 19.9356 -8.36348 -25.6911
ITEM: TIMESTEP
96000
ITEM: NUMBER OF ATOMS
6
ITEM: BOX BOUNDS pp pp pp
0.0000000000000000e+00 1.0000000000000000e+01
0.0000000000000000e+00 1.0000000000000000e+01
0.0000000000000000e+00 1.0000000000000000e+01
ITEM: ATOMS id type x y z vx vy vz
2 1 5.49481 4.73237 4.68544 -5.58057 -2.80555 1.26404
4 2 5.68737 3.63835 4.64606 -20.5588 -48.4764 -29.6355
3 2 6.3274 5.37242 4.27089 -22.2579 -20.2489 -22.2392
6 2 3.58376 4.63257 5.58804 42.7257 46.2073 55.1241
5 2 4.51402 6.33615 5.40628 24.31 -0.936714 -55.9562
1 1 4.49595 5.26932 5.32216 3.54809 4.77388 3.15913
ITEM: TIMESTEP
96100
ITEM: NUMBER OF ATOMS
6
ITEM: BOX BOUNDS pp pp pp
0.0000000000000000e+00 1.0000000000000000e+01
0.0000000000000000e+00 1.0000000000000000e+01
0.0000000000000000e+00 1.0000000000000000e+01
ITEM: ATOMS id type x y z vx vy vz
2 1 4.54946 4.5393 5.0856 -4.0546 3.81264 13.1229
4 2 4.87887 3.49176 5.43378 5.92139 35.2804 13.8284
3 2 3.49717 4.71477 4.84847 -14.046 20.6459 8.68685
6 2 6.41413 5.17854 5.05067 -2.60021 -40.5055 -38.7966
5 2 5.17797 6.55146 4.82053 49.2225 -8.64325 40.4288
1 1 5.45342 5.46599 4.90167 0.823864 -4.38142 -15.1494
ITEM: TIMESTEP
96200
ITEM: NUMBER OF ATOMS
6
ITEM: BOX BOUNDS pp pp pp
0.0000000000000000e+00 1.0000000000000000e+01
0.0000000000000000e+00 1.0000000000000000e+01
0.0000000000000000e+00 1.0000000000000000e+01
ITEM: ATOMS id type x y z vx vy vz
2 1 4.90365 5.32056 5.56087 13.3265 3.41598 -2.83956
4 2 3.91662 5.6847 5.62903 8.95163 8.98111 9.14219
3 2 5.59679 5.4742 6.38763 9.52913 20.7305 -37.6076
6 2 4.37056 4.7614 3.58866 -10.0202 32.9237 -7.92525
5 2 6.02996 4.24055 4.21182 -13.5085 -83.9739 30.2743
1 1 5.10378 4.66591 4.45463 -12.9029 -1.62524 3.35285
ITEM: TIMESTEP
96300
ITEM: NUMBER OF ATOMS
6
ITEM: BOX BOUNDS pp pp pp
0.0000000000000000e+00 1.0000000000000000e+01
0.0000000000000000e+00 1.0000000000000000e+01
0.0000000000000000e+00 1.0000000000000000e+01
ITEM: ATOMS id type x y z vx vy vz
2 1 5.64882 5.04215 4.85046 -6.75971 -13.3129 -3.78101
4 2 6.18115 4.9392 3.90591 -22.5524 -17.5012 -15.769
3 2 6.22105 5.0664 5.76302 27.6964 9.36729 4.04976
6 2 3.7323 4.52526 4.40866 -22.6723 -15.408 32.364
5 2 4.06354 5.06085 6.26735 15.7696 41.9046 14.6376
1 1 4.33476 4.99208 5.12074 6.9073 11.7719 0.820109
ITEM: TIMESTEP
96400
ITEM: NUMBER OF ATOMS
6
ITEM: BOX BOUNDS pp pp pp
0.0000000000000000e+00 1.0000000000000000e+01
0.0000000000000000e+00 1.0000000000000000e+01
0.0000000000000000e+00 1.0000000000000000e+01
ITEM: ATOMS id type x y z vx vy vz
2 1 4.85333 4.38303 4.74807 -10.3011 -3.68613 9.80767
4 2 4.89507 3.46266 5.39124 -17.1909 1.16148 15.9912
3 2 4.8866 4.31847 3.61095 -18.0499 16.6004 11.0963
6 2 5.48076 5.75458 6.3867 67.457 -16.9328 -21.466
5 2 4.95219 6.45491 4.64425 17.6157 10.6817 25.0576
1 1 5.12886 5.61772 5.2493 6.11924 2.72014 -12.3823
ITEM: TIMESTEP
96500
ITEM: NUMBER OF ATOMS
6
ITEM: BOX BOUNDS pp pp pp
0.0000000000000000e+00 1.0000000000000000e+01
0.0000000000000000e+00 1.0000000000000000e+01
0.0000000000000000e+00 1.0000000000000000e+01
ITEM: ATOMS id type x y z vx vy vz
2 1 4.61231 5.05791 5.56886 9.35613 8.16982 11.9389
4 2 3.99711 4.15989 5.63938 -35.3097 44.3071 -12.9645
3 2 4.59235 5.89617 6.27905 11.5383 -1.8805 -28.3986
6 2 5.32929 4.1741 3.73237 -44.9986 20.759 -7.04647
5 2 6.30287 5.64354 4.35217 10.0745 -10.2871 -1.73702
1 1 5.36929 4.95266 4.43104 -4.43039 -12.6091 -7.73057
ITEM: TIMESTEP
96600
ITEM: NUMBER OF ATOMS
6
ITEM: BOX BOUNDS pp pp pp
0.0000000000000000e+00 1.0000000000000000e+01
0.0000000000000000e+00 1.0000000000000000e+01
0.0000000000000000e+00 1.0000000000000000e+01
ITEM: ATOMS id type x y z vx vy vz
2 1 5.54685 5.37434 5.1392 6.80948 -5.08146 -6.26654
4 2 5.70435 6.40342 4.99374 42.4853 -22.0113 -36.502
3 2 6.11132 5.02896 5.94526 22.2713 1.21503 12.4613
6 2 3.87056 4.86504 3.89027 -32.7267 -2.20137 0.192977
5 2 4.11417 3.79579 5.37326 3.64243 32.8711 34.3493
1 1 4.4701 4.61781 4.84396 -9.80311 4.25287 5.38524
ITEM: TIMESTEP
96700
ITEM: NUMBER OF ATOMS
6
ITEM: BOX BOUNDS pp pp pp
0.0000000000000000e+00 1.0000000000000000e+01
0.0000000000000000e+00 1.0000000000000000e+01
0.0000000000000000e+00 1.0000000000000000e+01
ITEM: ATOMS id type x y z vx vy vz
2 1 5.30265 4.50696 4.67687 -4.83422 -8.51506 6.58099
4 2 4.9134 3.53445 4.44669 -30.805 -42.2822 -16.6015
3 2 6.19336 4.69817 3.98553 -52.0615 -9.07691 -50.1278
6 2 3.88498 5.34524 6.00254 23.7666 24.021 20.469
5 2 4.95014 6.5963 5.17631 -13.1688 22.1819 -4.9595
1 1 4.70242 5.47839 5.35591 10.899 8.94777 -2.28261
ITEM: TIMESTEP
96800
ITEM: NUMBER OF ATOMS
6
ITEM: BOX BOUNDS pp pp pp
0.0000000000000000e+00 1.0000000000000000e+01
0.0000000000000000e+00 1.0000000000000000e+01
0.0000000000000000e+00 1.0000000000000000e+01
ITEM: ATOMS id type x y z vx vy vz
2 1 4.44789 4.7583 5.30625 4.10565 8.48463 5.49846
4 2 4.57693 3.69448 5.7788 -21.3629 16.0177 -4.50548
3 2 3.39575 5.02149 5.14038 -33.3439 40.0666 65.1762
6 2 6.58938 4.76827 4.70951 5.16803 20.426 -18.7034
5 2 5.6126 6.23539 4.26978 32.199 -8.20151 -12.5141
1 1 5.53765 5.26519 4.70242 -2.6505 -14.2171 -7.97017
ITEM: TIMESTEP
96900
ITEM: NUMBER OF ATOMS
6
ITEM: BOX BOUNDS pp pp pp
0.0000000000000000e+00 1.0000000000000000e+01
0.0000000000000000e+00 1.0000000000000000e+01
0.0000000000000000e+00 1.0000000000000000e+01
ITEM: ATOMS id type x y z vx vy vz
2 1 5.15571 5.42822 5.51093 9.77203 -0.770234 -3.18615
4 2 4.44362 6.1406 5.90944 44.4541 72.1435 -3.67558
3 2 6.26257 5.5799 5.79794 -22.7407 -13.1835 0.0528426
6 2 3.93533 4.72726 3.96121 -19.0519 -18.5488 19.3148
5 2 5.53773 3.81858 3.98386 -58.1019 -20.084 18.097
1 1 4.82944 4.54939 4.51839 -5.11946 -0.935634 0.350568
ITEM: TIMESTEP
97000
ITEM: NUMBER OF ATOMS
6
ITEM: BOX BOUNDS pp pp pp
0.0000000000000000e+00 1.0000000000000000e+01
0.0000000000000000e+00 1.0000000000000000e+01
0.0000000000000000e+00 1.0000000000000000e+01
ITEM: ATOMS id type x y z vx vy vz
2 1 5.5677 4.76939 4.6949 -4.34073 -12.7509 -6.05446
4 2 5.62939 4.7126 3.54424 -31.0262 -62.2775 21.0707
6 2 3.45215 5.33306 4.84718 17.0857 26.2572 29.3785
3 2 6.50699 4.62296 5.18263 45.4688 25.0567 -27.3925
5 2 4.44243 5.18488 6.35746 -9.36218 -2.17535 18.0371
1 1 4.42991 5.24287 5.31099 2.48055 13.8535 2.60586
ITEM: TIMESTEP
97100
ITEM: NUMBER OF ATOMS
6
ITEM: BOX BOUNDS pp pp pp
0.0000000000000000e+00 1.0000000000000000e+01
0.0000000000000000e+00 1.0000000000000000e+01
0.0000000000000000e+00 1.0000000000000000e+01
ITEM: ATOMS id type x y z vx vy vz
2 1 4.63043 4.43714 4.96002 -8.66857 1.50755 -1.34271
4 2 4.29103 3.80754 5.7753 30.1374 -7.57649 56.5562
6 2 5.69531 5.92439 6.00445 54.8364 17.748 13.6665
3 2 4.4519 4.07993 3.90274 -71.134 13.1066 30.9077
5 2 5.59248 6.27041 4.24719 41.9106 -30.1859 -5.26712
1 1 5.36719 5.55592 5.04603 3.98998 -0.927855 -6.70214
ITEM: TIMESTEP
97200
ITEM: NUMBER OF ATOMS
6
ITEM: BOX BOUNDS pp pp pp
0.0000000000000000e+00 1.0000000000000000e+01
0.0000000000000000e+00 1.0000000000000000e+01
0.0000000000000000e+00 1.0000000000000000e+01
ITEM: ATOMS id type x y z vx vy vz
2 1 4.86141 5.29061 5.58027 10.9474 -4.35984 6.78257
4 2 4.31898 4.7503 6.42086 -26.2259 64.1074 -14.606
6 2 5.21148 3.61529 4.21069 -28.0017 1.75488 37.1367
3 2 4.9883 6.40396 5.68396 57.12 26.7136 -19.4976
5 2 5.49734 5.22818 3.51698 -13.0944 3.54457 -37.6322
1 1 5.13744 4.70955 4.43393 -10.0913 -3.70661 -3.879
ITEM: TIMESTEP
97300
ITEM: NUMBER OF ATOMS
6
ITEM: BOX BOUNDS pp pp pp
0.0000000000000000e+00 1.0000000000000000e+01
0.0000000000000000e+00 1.0000000000000000e+01
0.0000000000000000e+00 1.0000000000000000e+01
ITEM: ATOMS id type x y z vx vy vz
2 1 5.64076 5.15737 4.95577 -1.4802 -12.0769 -3.62296
4 2 5.97778 6.2014 4.62227 23.8804 -24.9959 -80.1708
6 2 3.42291 5.42753 4.8118 -13.5112 22.3881 30.6855
3 2 6.56595 4.63586 5.30082 -44.2131 10.0165 0.9992
5 2 4.10203 3.83668 5.37521 23.8715 30.5463 9.06745
1 1 4.35367 4.83409 5.03514 2.31708 8.89172 6.93098
ITEM: TIMESTEP
97400
ITEM: NUMBER OF ATOMS
6
ITEM: BOX BOUNDS pp pp pp
0.0000000000000000e+00 1.0000000000000000e+01
0.0000000000000000e+00 1.0000000000000000e+01
0.0000000000000000e+00 1.0000000000000000e+01
ITEM: ATOMS id type x y z vx vy vz
2 1 4.92167 4.35614 4.77175 -8.78341 0.284474 10.0308
4 2 3.99424 3.87069 4.44373 11.4722 33.2847 52.4136
6 2 4.23644 6.24101 5.32796 30.1897 2.34388 1.67172
3 2 5.76259 3.93036 4.24309 -27.0771 7.15905 -41.194
5 2 6.03111 6.14984 5.58722 27.8764 -11.0072 -20.8233
1 1 5.07648 5.62772 5.2618 5.22005 -2.9515 -9.36515
ITEM: TIMESTEP
97500
ITEM: NUMBER OF ATOMS
6
ITEM: BOX BOUNDS pp pp pp
0.0000000000000000e+00 1.0000000000000000e+01
0.0000000000000000e+00 1.0000000000000000e+01
0.0000000000000000e+00 1.0000000000000000e+01
ITEM: ATOMS id type x y z vx vy vz
2 1 4.48412 4.98646 5.47174 4.11658 5.04933 1.70517
4 2 4.72456 4.48802 6.37425 15.5135 -2.77589 25.4542
6 2 6.60873 4.856 4.80286 2.7815 -19.8699 12.5453
3 2 3.46507 5.37659 5.3845 45.3734 75.5028 25.9706
5 2 5.44719 5.38934 3.55931 -11.2176 -27.7085 -0.433897
1 1 5.49547 5.00428 4.51826 -8.51826 -7.15979 -7.03713
ITEM: TIMESTEP
97600
ITEM: NUMBER OF ATOMS
6
ITEM: BOX BOUNDS pp pp pp
0.0000000000000000e+00 1.0000000000000000e+01
0.0000000000000000e+00 1.0000000000000000e+01
0.0000000000000000e+00 1.0000000000000000e+01
ITEM: ATOMS id type x y z vx vy vz
2 1 5.51749 5.33572 5.30371 5.64083 -5.06564 -7.99694
4 2 5.34644 6.08391 6.09398 12.7765 12.8549 -20.9235
6 2 3.57502 4.42349 5.21473 12.157 15.8773 27.6262
3 2 6.492 5.56295 4.79944 40.4155 -38.329 -12.6007
5 2 4.61145 4.19074 3.6255 25.9939 -40.578 -2.21798
1 1 4.48062 4.64234 4.71879 -13.3063 9.27631 8.67803
ITEM: TIMESTEP
97700
ITEM: NUMBER OF ATOMS
6
ITEM: BOX BOUNDS pp pp pp
0.0000000000000000e+00 1.0000000000000000e+01
0.0000000000000000e+00 1.0000000000000000e+01
0.0000000000000000e+00 1.0000000000000000e+01
ITEM: ATOMS id type x y z vx vy vz
2 1 5.3289 4.5794 4.58657 -6.49112 -7.7246 -4.6199
4 2 5.23529 4.40388 3.48644 -47.8963 -25.2467 4.95874
6 2 3.94222 6.24715 4.9739 4.21863 20.5838 -21.7811
3 2 6.05386 3.90282 5.02829 -19.9854 2.18344 8.15664
5 2 4.43194 5.18859 6.4503 39.221 42.239 -9.01908
1 1 4.69955 5.44219 5.4187 8.54231 4.38798 6.10401
ITEM: TIMESTEP
97800
ITEM: NUMBER OF ATOMS
6
ITEM: BOX BOUNDS pp pp pp
0.0000000000000000e+00 1.0000000000000000e+01
0.0000000000000000e+00 1.0000000000000000e+01
0.0000000000000000e+00 1.0000000000000000e+01
ITEM: ATOMS id type x y z vx vy vz
2 1 4.51267 4.59614 5.20644 -3.36194 5.81206 7.93072
4 2 4.26208 4.73273 6.22973 30.371 7.49665 20.2608
6 2 5.94268 6.27981 5.3755 36.4998 -85.2383 -7.35799
3 2 3.92001 3.83396 4.65917 -24.0458 17.7843 26.2156
5 2 6.05611 5.18579 3.85544 15.9803 -24.9657 -15.7934
1 1 5.47235 5.40111 4.78365 -1.57301 1.31469 -9.88816
ITEM: TIMESTEP
97900
ITEM: NUMBER OF ATOMS
6
ITEM: BOX BOUNDS pp pp pp
0.0000000000000000e+00 1.0000000000000000e+01
0.0000000000000000e+00 1.0000000000000000e+01
0.0000000000000000e+00 1.0000000000000000e+01
ITEM: ATOMS id type x y z vx vy vz
2 1 5.15342 5.42381 5.49375 12.2515 0.112561 -8.70994
4 2 5.0442 5.1534 6.58303 11.7236 27.0892 -8.70897
6 2 4.97613 3.55467 4.66936 -75.7708 -16.0845 -0.191462
3 2 5.37773 6.44055 5.27683 23.129 21.7036 5.18349
5 2 4.78708 4.86398 3.43867 3.04158 -5.04083 54.8445
1 1 4.83124 4.5751 4.50909 -9.07292 -2.43441 4.41931
ITEM: TIMESTEP
98000
ITEM: NUMBER OF ATOMS
6
ITEM: BOX BOUNDS pp pp pp
0.0000000000000000e+00 1.0000000000000000e+01
0.0000000000000000e+00 1.0000000000000000e+01
0.0000000000000000e+00 1.0000000000000000e+01
ITEM: ATOMS id type x y z vx vy vz
2 1 5.61226 4.93048 4.75125 -5.34888 -5.157 -3.36294
4 2 6.29567 5.66337 4.36222 23.3493 -31.8491 -44.4988
5 2 3.92383 4.25389 5.59247 -3.23148 28.0708 80.4173
3 2 6.05344 3.90619 5.03896 -21.5784 -4.55962 -10.5362
6 2 3.94192 6.0684 5.41417 25.829 3.67795 -2.60088
1 1 4.36991 5.07856 5.21467 3.30389 5.54806 1.45113
ITEM: TIMESTEP
98100
ITEM: NUMBER OF ATOMS
6
ITEM: BOX BOUNDS pp pp pp
0.0000000000000000e+00 1.0000000000000000e+01
0.0000000000000000e+00 1.0000000000000000e+01
0.0000000000000000e+00 1.0000000000000000e+01
ITEM: ATOMS id type x y z vx vy vz
2 1 4.69225 4.41002 4.95702 -5.49177 4.43927 10.5521
4 2 3.57409 4.51454 4.78952 16.5528 15.8778 2.90501
5 2 6.43618 5.54427 5.22005 54.2791 -14.0104 -65.0764
3 2 5.14075 3.47704 4.72348 -41.9887 -17.1655 15.5888
6 2 4.75805 6.45998 5.12797 3.80975 24.6972 37.8069
1 1 5.31558 5.5903 5.05479 2.75153 -5.22805 -9.81564
ITEM: TIMESTEP
98200
ITEM: NUMBER OF ATOMS
6
ITEM: BOX BOUNDS pp pp pp
0.0000000000000000e+00 1.0000000000000000e+01
0.0000000000000000e+00 1.0000000000000000e+01
0.0000000000000000e+00 1.0000000000000000e+01
ITEM: ATOMS id type x y z vx vy vz
2 1 4.71868 5.21043 5.56306 5.30824 5.62928 1.44913
4 2 5.16456 4.94986 6.49035 31.219 37.8412 7.60871
5 2 4.84145 4.80902 3.42319 -18.8865 17.7195 12.3603
3 2 3.74083 5.73389 5.55904 29.5995 31.3989 -5.52802
6 2 6.33061 4.30383 4.69695 9.48023 -81.5355 -5.9045
1 1 5.27502 4.80661 4.42287 -9.62276 -6.08448 -2.16551
ITEM: TIMESTEP
98300
ITEM: NUMBER OF ATOMS
6
ITEM: BOX BOUNDS pp pp pp
0.0000000000000000e+00 1.0000000000000000e+01
0.0000000000000000e+00 1.0000000000000000e+01
0.0000000000000000e+00 1.0000000000000000e+01
ITEM: ATOMS id type x y z vx vy vz
2 1 5.63034 5.16656 5.02489 2.96 -4.42043 -3.15846
4 2 6.01329 5.69588 5.90865 24.6136 -27.563 -3.25215
5 2 4.09126 4.21794 4.01175 -14.4928 -56.448 20.6997
3 2 6.25708 5.17036 4.1378 -16.2998 -31.3875 -40.0387
6 2 3.60584 4.90532 5.85412 30.6412 55.7849 -9.70928
1 1 4.37259 4.83429 4.98262 -5.01287 9.42322 5.86911
ITEM: TIMESTEP
98400
ITEM: NUMBER OF ATOMS
6
ITEM: BOX BOUNDS pp pp pp
0.0000000000000000e+00 1.0000000000000000e+01
0.0000000000000000e+00 1.0000000000000000e+01
0.0000000000000000e+00 1.0000000000000000e+01
ITEM: ATOMS id type x y z vx vy vz
2 1 5.07919 4.4488 4.66299 -6.66515 -6.33327 10.7572
4 2 4.83178 4.34222 3.58373 -34.8023 27.9469 6.84045
5 2 5.07016 5.55644 6.51152 70.6012 25.7346 -59.2615
3 2 5.38282 3.48084 5.0968 -44.3794 -9.85725 -24.3753
6 2 4.56162 6.49589 4.88306 -6.21604 11.6653 -16.4766
1 1 4.9339 5.56163 5.33086 7.90688 1.67657 -2.92968
ITEM: TIMESTEP
98500
ITEM: NUMBER OF ATOMS
6
ITEM: BOX BOUNDS pp pp pp
0.0000000000000000e+00 1.0000000000000000e+01
0.0000000000000000e+00 1.0000000000000000e+01
0.0000000000000000e+00 1.0000000000000000e+01
ITEM: ATOMS id type x y z vx vy vz
2 1 4.53169 4.8708 5.45099 3.79327 13.2818 5.84204
4 2 4.34792 5.3757 6.35169 29.8011 2.11292 3.84933
5 2 5.69823 4.62501 3.67346 -19.3649 5.3263 -8.05888
3 2 3.87332 3.99864 5.27989 -3.72486 5.4346 -1.65028
6 2 6.33165 5.74719 4.97113 2.45094 -80.9728 -30.4423
1 1 5.44743 5.15043 4.52599 -4.56217 -7.56692 -2.79556
ITEM: TIMESTEP
98600
ITEM: NUMBER OF ATOMS
6
ITEM: BOX BOUNDS pp pp pp
0.0000000000000000e+00 1.0000000000000000e+01
0.0000000000000000e+00 1.0000000000000000e+01
0.0000000000000000e+00 1.0000000000000000e+01
ITEM: ATOMS id type x y z vx vy vz
2 1 5.40606 5.44752 5.3145 7.11771 -6.63248 -5.81249
4 2 5.86988 5.20986 6.32763 31.1209 16.0855 6.77031
5 2 4.33558 4.82943 3.6425 -25.0145 -12.4327 19.7963
3 2 5.51973 6.4224 4.92972 4.20459 -10.7647 -28.386
6 2 4.23204 3.61878 4.94812 -73.1805 55.2423 39.7318
1 1 4.59773 4.54569 4.69841 -1.84168 2.59338 2.63088
ITEM: TIMESTEP
98700
ITEM: NUMBER OF ATOMS
6
ITEM: BOX BOUNDS pp pp pp
0.0000000000000000e+00 1.0000000000000000e+01
0.0000000000000000e+00 1.0000000000000000e+01
0.0000000000000000e+00 1.0000000000000000e+01
ITEM: ATOMS id type x y z vx vy vz
2 1 5.48711 4.65271 4.64379 -6.15319 -8.86072 3.66177
4 2 6.28786 5.12118 4.08246 -39.3784 -25.7577 -53.5857
5 2 4.02869 4.87382 6.11963 22.5471 12.9933 21.3372
3 2 5.53767 3.49141 4.65606 0.309347 -19.7983 -23.952
6 2 4.47048 6.48151 5.40934 6.96056 30.9657 -26.0897
1 1 4.48584 5.34995 5.33391 6.95559 8.99473 3.24404
ITEM: TIMESTEP
98800
ITEM: NUMBER OF ATOMS
6
ITEM: BOX BOUNDS pp pp pp
0.0000000000000000e+00 1.0000000000000000e+01
0.0000000000000000e+00 1.0000000000000000e+01
0.0000000000000000e+00 1.0000000000000000e+01
ITEM: ATOMS id type x y z vx vy vz
2 1 4.49209 4.56886 5.18671 -5.9992 2.11568 9.11991
4 2 3.39148 4.7731 4.97441 -28.3393 29.712 34.8451
5 2 6.61487 5.15177 4.5486 13.2081 -18.681 -52.4806
3 2 4.56481 3.50448 5.18047 -4.23627 12.1882 1.01208
6 2 5.23997 6.46031 4.79045 26.8581 5.753 -18.081
1 1 5.52396 5.44037 4.85591 5.37058 -4.54703 -6.20751
ITEM: TIMESTEP
98900
ITEM: NUMBER OF ATOMS
6
ITEM: BOX BOUNDS pp pp pp
0.0000000000000000e+00 1.0000000000000000e+01
0.0000000000000000e+00 1.0000000000000000e+01
0.0000000000000000e+00 1.0000000000000000e+01
ITEM: ATOMS id type x y z vx vy vz
2 1 4.94313 5.37933 5.57429 7.94103 5.1744 9.2027
4 2 5.77206 5.46795 6.27693 14.1246 14.1322 -29.7287
5 2 4.40162 4.69053 3.6046 3.09482 14.789 22.801
3 2 4.14157 6.21491 5.69176 28.2568 60.4602 -36.5328
6 2 5.7831 3.79179 4.16459 -34.5789 -22.068 -21.6146
1 1 5.04882 4.60677 4.44786 -8.85553 -10.8234 -3.74158
ITEM: TIMESTEP
99000
ITEM: NUMBER OF ATOMS
6
ITEM: BOX BOUNDS pp pp pp
0.0000000000000000e+00 1.0000000000000000e+01
0.0000000000000000e+00 1.0000000000000000e+01
0.0000000000000000e+00 1.0000000000000000e+01
ITEM: ATOMS id type x y z vx vy vz
5 2 3.48566 4.6628 4.62398 -20.7728 -6.02348 22.677
2 1 5.64269 4.94421 4.83109 -0.12918 -6.77091 -9.46828
3 2 5.92917 4.95734 3.73501 5.47679 -75.3599 29.5524
6 2 4.03175 5.33372 6.11628 20.9014 4.6275 11.1315
1 1 4.35578 5.0438 5.17673 -1.60297 13.272 6.25766
4 2 6.57392 5.18866 5.43336 15.035 -0.712263 -25.1027
ITEM: TIMESTEP
99100
ITEM: NUMBER OF ATOMS
6
ITEM: BOX BOUNDS pp pp pp
0.0000000000000000e+00 1.0000000000000000e+01
0.0000000000000000e+00 1.0000000000000000e+01
0.0000000000000000e+00 1.0000000000000000e+01
ITEM: ATOMS id type x y z vx vy vz
5 2 5.52242 5.91392 6.21578 45.9299 37.1329 -12.8453
2 1 4.80455 4.39071 4.79918 -7.86975 4.86173 -0.783237
3 2 4.55755 3.47514 5.2803 -2.3009 -4.96293 9.56723
6 2 5.1218 6.47326 4.50417 23.6159 5.09444 -42.4573
1 1 5.22486 5.59389 5.22135 6.98005 -8.0189 -1.04174
4 2 4.45015 4.32082 3.75683 -56.6431 0.356695 67.482
ITEM: TIMESTEP
99200
ITEM: NUMBER OF ATOMS
6
ITEM: BOX BOUNDS pp pp pp
0.0000000000000000e+00 1.0000000000000000e+01
0.0000000000000000e+00 1.0000000000000000e+01
0.0000000000000000e+00 1.0000000000000000e+01
ITEM: ATOMS id type x y z vx vy vz
5 2 5.38143 3.80967 4.02253 -9.75146 -10.877 18.4007
2 1 4.66203 5.12502 5.58598 4.1569 -0.731497 0.778655
3 2 3.99212 4.43539 6.07858 -11.0297 49.9711 -16.6418
6 2 6.10771 5.55888 3.9328 -10.3354 -52.2761 -39.125
1 1 5.31839 4.88266 4.4126 -8.5475 0.165126 0.585026
4 2 4.75448 6.10419 5.98477 83.4353 19.9308 21.1164
ITEM: TIMESTEP
99300
ITEM: NUMBER OF ATOMS
6
ITEM: BOX BOUNDS pp pp pp
0.0000000000000000e+00 1.0000000000000000e+01
0.0000000000000000e+00 1.0000000000000000e+01
0.0000000000000000e+00 1.0000000000000000e+01
ITEM: ATOMS id type x y z vx vy vz