LAMMPS data file via write_data, version 2 Aug 2023, timestep = 134000, units = metal

6 atoms
2 atom types

0 10 xlo xhi
0 10 ylo yhi
0 10 zlo zhi

Masses

1 12.0107
2 1.00794

Atoms # atomic

2 1 4.7350706899523995 4.398909670104504 4.825258405177363 0 0 0
4 2 4.362630624838196 4.236272645221366 3.8378985489818813 0 0 0
6 2 5.589942667690556 6.2235758607042 4.413657192456147 0 0 0
3 2 4.525484029511303 3.8347629587539545 5.770259109795559 0 0 0
5 2 5.646645324183461 5.741698818423436 6.230178143063891 0 0 0
1 1 5.254664085320908 5.598009375943889 5.153742786539767 0 0 0

Velocities

2 -8.386065230464775 13.043114895697446 7.526491029678539
4 -15.081275520150788 -10.795400900018867 6.110493020766892
6 -17.234089356899233 -41.742091585146795 -7.952001480277562
3 3.7038510057625986 10.862626624978757 31.611132978075045
5 49.704670804188325 -32.74685991273072 -16.210082579070374
1 6.615923889914512 -6.797630929271354 -8.664410110371701
