LAMMPS (2 Aug 2023)
OMP_NUM_THREADS environment is not set. Defaulting to 1 thread. (src/comm.cpp:98)
  using 1 OpenMP thread(s) per MPI task
Loaded 1 plugins from /home/venkatan/deepmd-kit/lib/deepmd_lmp
# LAMMPS input script for a custom data setup

units           metal
boundary        p p p
atom_style      atomic

# Define simulation box
region box block 0.0 10.0 0.0 10.0 0.0 10.0
create_box 2 box   # 2 = number of atom types
Created orthogonal box = (0 0 0) to (10 10 10)
  1 by 1 by 1 MPI processor grid

# Define masses
mass 1 12.0107    # C
mass 2 1.00794    # H

# Create atoms (atom-ID, atom-type, x, y, z)
create_atoms 1 single 4.34039 4.909915 5.001325
Created 1 atoms
  using lattice units in orthogonal box = (0 0 0) to (10 10 10)
  create_atoms CPU = 0.000 seconds
create_atoms 1 single 5.65960 5.090085 4.998665
Created 1 atoms
  using lattice units in orthogonal box = (0 0 0) to (10 10 10)
  create_atoms CPU = 0.000 seconds
create_atoms 2 single 6.24080 4.883975 5.891915
Created 1 atoms
  using lattice units in orthogonal box = (0 0 0) to (10 10 10)
  create_atoms CPU = 0.000 seconds
create_atoms 2 single 6.16001 5.443825 4.103245
Created 1 atoms
  using lattice units in orthogonal box = (0 0 0) to (10 10 10)
  create_atoms CPU = 0.000 seconds
create_atoms 2 single 3.83999 4.556175 5.896755
Created 1 atoms
  using lattice units in orthogonal box = (0 0 0) to (10 10 10)
  create_atoms CPU = 0.000 seconds
create_atoms 2 single 3.75992 5.116025 4.108085
Created 1 atoms
  using lattice units in orthogonal box = (0 0 0) to (10 10 10)
  create_atoms CPU = 0.000 seconds

# Neighbor and interaction setup
neighbor        1.0 bin
neigh_modify    every 10 delay 0 check no

# Define force field
pair_style deepmd ../../graph.pb
Summary of lammps deepmd module ...
  >>> Info of deepmd-kit:
  installed to:       /home/venkatan/deepmd-kit
  source:             
  source branch:      HEAD
  source commit:      c45d372
  source commit at:   2024-07-07 08:06:13 +0000
  support model ver.: 1.1 
  build variant:      cuda
  build with tf inc:  /home/venkatan/deepmd-kit/lib/python3.11/site-packages/tensorflow/include;/home/venkatan/deepmd-kit/include
  build with tf lib:  /home/venkatan/deepmd-kit/lib/python3.11/site-packages/tensorflow/libtensorflow_cc.so.2
  set tf intra_op_parallelism_threads: 0
  set tf inter_op_parallelism_threads: 0
  >>> Info of lammps module:
  use deepmd-kit at:  /home/venkatan/deepmd-kitpair_coeff * *

# Define groups
group real_atom type 1 2
6 atoms in group real_atom

# Initialize velocities
velocity real_atom create 150 12345 mom yes rot no

# Minimize to remove overlaps
minimize 1.0e-4 1.0e-6 1000 10000

CITE-CITE-CITE-CITE-CITE-CITE-CITE-CITE-CITE-CITE-CITE-CITE-CITE

Your simulation uses code contributions which should be cited:

- USER-DEEPMD package:

@article{Wang_ComputPhysCommun_2018_v228_p178,
  author = {Wang, Han and Zhang, Linfeng and Han, Jiequn and E, Weinan},
  doi = {10.1016/j.cpc.2018.03.016},
  url = {https://doi.org/10.1016/j.cpc.2018.03.016},
  year = 2018,
  month = {jul},
  publisher = {Elsevier {BV}},
  volume = 228,
  journal = {Comput. Phys. Commun.},
  title = {{DeePMD-kit: A deep learning package for many-body potential energy representation and molecular dynamics}},
  pages = {178--184}
}
@misc{Zeng_JChemPhys_2023_v159_p054801,
  title  = {{DeePMD-kit v2: A software package for deep potential models}},
  author =   {Jinzhe Zeng and Duo Zhang and Denghui Lu and Pinghui Mo and Zeyu Li
         and Yixiao Chen and Mari{\'a}n Rynik and Li'ang Huang and Ziyao Li and 
         Shaochen Shi and Yingze Wang and Haotian Ye and Ping Tuo and Jiabin
         Yang and Ye Ding and Yifan Li and Davide Tisi and Qiyu Zeng and Han 
         Bao and Yu Xia and Jiameng Huang and Koki Muraoka and Yibo Wang and 
         Junhan Chang and Fengbo Yuan and Sigbj{\o}rn L{\o}land Bore and Chun
         Cai and Yinnian Lin and Bo Wang and Jiayan Xu and Jia-Xin Zhu and 
         Chenxing Luo and Yuzhi Zhang and Rhys E A Goodall and Wenshuo Liang
         and Anurag Kumar Singh and Sikai Yao and Jingchao Zhang and Renata
         Wentzcovitch and Jiequn Han and Jie Liu and Weile Jia and Darrin M
         York and Weinan E and Roberto Car and Linfeng Zhang and Han Wang},
  journal =  {J. Chem. Phys.},
  volume =   159,
  issue =    5,  
  year =    2023,
  pages  =   054801,
  doi =      {10.1063/5.0155600},
}

CITE-CITE-CITE-CITE-CITE-CITE-CITE-CITE-CITE-CITE-CITE-CITE-CITE

Switching to 'neigh_modify every 1 delay 0 check yes' setting during minimization
Generated 0 of 1 mixed pair_coeff terms from geometric mixing rule
Neighbor list info ...
  update: every = 1 steps, delay = 0 steps, check = yes
  max neighbors/atom: 2000, page size: 100000
  master list distance cutoff = 7
  ghost atom cutoff = 7
  binsize = 3.5, bins = 3 3 3
  1 neighbor lists, perpetual/occasional/extra = 1 0 0
  (1) pair deepmd, perpetual
      attributes: full, newton on
      pair build: full/bin/atomonly
      stencil: full/bin/3d
      bin: standard
Per MPI rank memory allocation (min/avg/max) = 4.184 | 4.184 | 4.184 Mbytes
   Step          Temp          E_pair         E_mol          TotEng         Press     
         0   150           -373.46157      0             -373.36463      796.65531    
         1   150           -373.46524      0             -373.3683       690.3356     
Loop time of 0.00784248 on 1 procs for 1 steps with 6 atoms

160.8% CPU use with 1 MPI tasks x 1 OpenMP threads

Minimization stats:
  Stopping criterion = energy tolerance
  Energy initial, next-to-last, final = 
     -373.461571741104  -373.461571741104  -373.465242433548
  Force two-norm initial, final = 0.64736111 0.61937974
  Force max component initial, final = 0.28591739 0.34346016
  Final line search alpha, max atom move = 0.34975138 0.12012566
  Iterations, force evaluations = 1 2

MPI task timing breakdown:
Section |  min time  |  avg time  |  max time  |%varavg| %total
---------------------------------------------------------------
Pair    | 0.0077743  | 0.0077743  | 0.0077743  |   0.0 | 99.13
Neigh   | 0          | 0          | 0          |   0.0 |  0.00
Comm    | 8.209e-06  | 8.209e-06  | 8.209e-06  |   0.0 |  0.10
Output  | 0          | 0          | 0          |   0.0 |  0.00
Modify  | 0          | 0          | 0          |   0.0 |  0.00
Other   |            | 5.997e-05  |            |       |  0.76

Nlocal:              6 ave           6 max           6 min
Histogram: 1 0 0 0 0 0 0 0 0 0
Nghost:            156 ave         156 max         156 min
Histogram: 1 0 0 0 0 0 0 0 0 0
Neighs:              0 ave           0 max           0 min
Histogram: 1 0 0 0 0 0 0 0 0 0
FullNghs:           30 ave          30 max          30 min
Histogram: 1 0 0 0 0 0 0 0 0 0

Total # of neighbors = 30
Ave neighs/atom = 5
Neighbor list builds = 0
Dangerous builds not checked


# Thermostat setup
compute real_temp real_atom temp
compute real_press all pressure real_temp
fix 1 real_atom nvt temp 150.0 150.0 0.05
fix_modify 1 temp real_temp
WARNING: Temperature for fix modify is not for group all (src/fix_nh.cpp:1411)

# Thermodynamic output
timestep 0.001
thermo 2
thermo_style custom step ke pe etotal temp press vol
thermo_modify temp real_temp press real_press
WARNING: Temperature for thermo pressure is not for group all (src/thermo.cpp:527)

# Output thermodynamic data to a separate file
fix thermo_print all print 2 "$(step) $(temp) $(press) $(ke) $(pe) $(etotal)" file thermo_data_NVT150.out screen no title "# Step Temp Press KE PE Total_Energy"

# Dump configuration
dump 1 real_atom custom 2 ethylene_NVT150.dump id type x y z vx vy vz

# Run the first 19000 steps without writing restart files
run 49550
Generated 0 of 1 mixed pair_coeff terms from geometric mixing rule
Per MPI rank memory allocation (min/avg/max) = 2.559 | 2.559 | 2.559 Mbytes
   Step         KinEng         PotEng         TotEng          Temp          Press          Volume    
         1   0.096945109   -373.46524     -373.3683       150            690.3356       1000         
         2   0.087248081   -373.45436     -373.36712      134.99611     -368.78618      1000         
         4   0.060579449   -373.4253      -373.36472      93.732603     -1447.7816      1000         
         6   0.096312378   -373.46405     -373.36773      149.021       -590.90242      1000         
         8   0.071275711   -373.43709     -373.36581      110.28258      1033.0503      1000         
        10   0.060563001   -373.42561     -373.36504      93.707153      993.73493      1000         
        12   0.087137346   -373.45438     -373.36725      134.82477     -888.45075      1000         
        14   0.054547519   -373.41831     -373.36377      84.399594     -2167.6452      1000         
        16   0.0851262     -373.45046     -373.36533      131.71299     -1376.136       1000         
        18   0.09814612    -373.46392     -373.36577      151.85828      854.65249      1000         
        20   0.0659138     -373.428       -373.36208      101.98627      2076.328       1000         
        22   0.096871003   -373.46209     -373.36522      149.88534      884.39693      1000         
        24   0.063519249   -373.42538     -373.36186      98.281259     -795.14984      1000         
        26   0.063425634   -373.42473     -373.3613       98.136411     -930.86805      1000         
        28   0.099793026   -373.46318     -373.36339      154.40649      589.91799      1000         
        30   0.06693815    -373.4257      -373.35876      103.57121      1853.0811      1000         
        32   0.095580779   -373.45646     -373.36088      147.88902      773.80377      1000         
        34   0.086649343   -373.44564     -373.35899      134.0697      -1451.1379      1000         
        36   0.057361114   -373.41336     -373.356        88.752978     -2319.1741      1000         
        38   0.098300613   -373.45658     -373.35828      152.09733     -1018.293       1000         
        40   0.079131205   -373.43379     -373.35466      122.43713      1084.1397      1000         
        42   0.086097889   -373.43988     -373.35379      133.21645      1372.9137      1000         
        44   0.10936642    -373.46353     -373.35416      169.21909     -244.16822      1000         
        46   0.064485498   -373.41377     -373.34929      99.776304     -1305.9059      1000         
        48   0.088981233   -373.43924     -373.35026      137.67776     -424.41435      1000         
        50   0.092512403   -373.44124     -373.34872      143.14142      1660.6733      1000         
        52   0.074384838   -373.41885     -373.34447      115.09323      2377.8026      1000         
        54   0.1233096     -373.46963     -373.34632      190.79292      522.18325      1000         
        56   0.091873936   -373.43266     -373.34079      142.15354     -1652.3366      1000         
        58   0.092225925   -373.43134     -373.33912      142.69816     -1959.0363      1000         
        60   0.11482903    -373.45401     -373.33918      177.67121     -283.87065      1000         
        62   0.070160098   -373.40277     -373.33261      108.55643      1244.7408      1000         
        64   0.10993217    -373.44397     -373.33404      170.09446      405.28222      1000         
        66   0.10935404    -373.43918     -373.32983      169.19993     -1462.3102      1000         
        68   0.091250585   -373.41642     -373.32517      141.18905     -1824.0107      1000         
        70   0.13761643    -373.46323     -373.32561      212.9294       12.144623      1000         
        72   0.10300559    -373.4217      -373.31869      159.37719      2390.9366      1000         
        74   0.10762185    -373.42415     -373.31652      166.51977      2414.0473      1000         
        76   0.13224284    -373.44664     -373.3144       204.61502      161.743        1000         
        78   0.097051743   -373.40433     -373.30728      150.16499     -1556.5961      1000         
        80   0.14215875    -373.44877     -373.30661      219.95758     -1113.919       1000         
        82   0.14148416    -373.44308     -373.3016       218.91382      788.44634      1000         
        84   0.10851046    -373.40331     -373.2948       167.89469      1372.3081      1000         
        86   0.14950574    -373.44415     -373.29464      231.32535     -559.88261      1000         
        88   0.1147011     -373.40137     -373.28667      177.47327     -2481.0469      1000         
        90   0.1365862     -373.42012     -373.28354      211.33536     -2135.625       1000         
        92   0.18380134    -373.46519     -373.28139      284.38981      397.32489      1000         
        94   0.13981101    -373.41132     -373.27151      216.325        2538.367       1000         
        96   0.17089828    -373.44196     -373.27107      264.42532      1734.2853      1000         
        98   0.1432761     -373.40779     -373.26452      221.68642     -473.09688      1000         
       100   0.11817174    -373.37711     -373.25893      182.84327     -1271.4664      1000         
       102   0.18777292    -373.44716     -373.25939      290.53491      143.75305      1000         
       104   0.16983508    -373.42099     -373.25115      262.78028      2056.3291      1000         
       106   0.18594833    -373.4344      -373.24845      287.71178      1453.1344      1000         
       108   0.19710697    -373.44296     -373.24585      304.97718     -1296.153       1000         
       110   0.13665856    -373.3751      -373.23844      211.44732     -2980.7687      1000         
       112   0.18243716    -373.42172     -373.23928      282.27906     -1949.934       1000         
       114   0.19196527    -373.42821     -373.23625      297.02159      807.92339      1000         
       116   0.17430559    -373.40545     -373.23114      269.69734      2044.5849      1000         
       118   0.22337431    -373.45735     -373.23398      345.61977      397.19746      1000         
       120   0.16230174    -373.39051     -373.22821      251.12418     -1383.9058      1000         
       122   0.16283658    -373.39094     -373.2281       251.95173     -982.38613      1000         
       124   0.20431488    -373.43536     -373.23105      316.12973      1386.6223      1000         
       126   0.16829473    -373.39449     -373.22619      260.39694      2991.0254      1000         
       128   0.22206286    -373.45381     -373.23175      343.59061      1346.3488      1000         
       130   0.19762737    -373.42933     -373.2317       305.78237     -1589.3511      1000         
       132   0.15407645    -373.38529     -373.23121      238.39745     -2660.8433      1000         
       134   0.19528323    -373.43358     -373.2383       302.15536     -1079.9349      1000         
       136   0.15217394    -373.39003     -373.23786      235.45377      1247.3283      1000         
       138   0.16887147    -373.41126     -373.24239      261.28931      1154.1695      1000         
       140   0.20062539    -373.45047     -373.24984      310.42112     -1029.9605      1000         
       142   0.1494707     -373.40048     -373.25101      231.27114     -2139.8159      1000         
       144   0.18056453    -373.44047     -373.2599       279.3816      -731.00824      1000         
       146   0.16411902    -373.43114     -373.26702      253.936        1998.934       1000         
       148   0.12409886    -373.39411     -373.27001      192.01411      2896.4928      1000         
       150   0.16671677    -373.44857     -373.28185      257.95541      816.26146      1000         
       152   0.12572181    -373.41192     -373.2862       194.52526     -1450.6597      1000         
       154   0.13189485    -373.42562     -373.29372      204.07659     -1585.6846      1000         
       156   0.15256816    -373.45787     -373.3053       236.06374      226.52255      1000         
       158   0.094491243   -373.40295     -373.30845      146.20321      1551.5952      1000         
       160   0.11849918    -373.43675     -373.31825      183.34991      288.0748       1000         
       162   0.10626152    -373.43095     -373.32468      164.41498     -1858.6751      1000         
       164   0.087289077   -373.41585     -373.32856      135.05954     -2237.8231      1000         
       166   0.12717567    -373.4656      -373.33843      196.77476     -385.57115      1000         
       168   0.093225219   -373.43581     -373.34258      144.24434      1861.0807      1000         
       170   0.085972315   -373.4334      -373.34743      133.02215      1892.4664      1000         
       172   0.09412473    -373.44801     -373.35388      145.63612      17.485801      1000         
       174   0.05713799    -373.4115      -373.35436      88.407746     -1157.0461      1000         
       176   0.088726368   -373.44835     -373.35962      137.28341     -402.58908      1000         
       178   0.091407094   -373.45477     -373.36336      141.43121      1310.4816      1000         
       180   0.070420117   -373.43437     -373.36395      108.95875      1577.6563      1000         
       182   0.094724487   -373.4643      -373.36958      146.5641      -322.84618      1000         
       184   0.058812121   -373.42791     -373.36909      90.998073     -2091.3114      1000         
       186   0.062448236   -373.4334      -373.37095      96.624115     -1867.462       1000         
       188   0.083934279   -373.45843     -373.37449      129.86877      57.260365      1000         
       190   0.054962589   -373.42775     -373.37279      85.041819      1519.7318      1000         
       192   0.081252026   -373.45777     -373.37652      125.71861      772.84277      1000         
       194   0.069486935   -373.44615     -373.37666      107.51486     -789.62515      1000         
       196   0.050941946   -373.4269      -373.37595      78.820809     -993.17226      1000         
       198   0.082086083   -373.46141     -373.37932      127.00911      500.06755      1000         
       200   0.060089394   -373.43784     -373.37775      92.974356      2048.3624      1000         
       202   0.069880464   -373.44886     -373.37898      108.12376      1474.6072      1000         
       204   0.081880693   -373.46252     -373.38064      126.69132     -692.4546       1000         
       206   0.047382179   -373.42571     -373.37833      73.312898     -1968.9451      1000         
       208   0.070323178   -373.45103     -373.38071      108.80876     -1228.6044      1000         
       210   0.064231855   -373.44473     -373.3805       99.383851      558.28866      1000         
       212   0.051434999   -373.43037     -373.37893      79.583694      1069.8321      1000         
       214   0.085279879   -373.46716     -373.38188      131.95077     -334.01876      1000         
       216   0.057576478   -373.43673     -373.37915      89.086203     -1509.9983      1000         
       218   0.065901345   -373.44569     -373.37979      101.967       -863.9895       1000         
       220   0.080189575   -373.46141     -373.38122      124.07471      1151.5623      1000         
       222   0.045924229   -373.4237      -373.37778      71.05706       2340.6462      1000         
       224   0.076311386   -373.45689     -373.38058      118.07411      1119.3511      1000         
       226   0.065037385   -373.44376     -373.37873      100.63022     -903.16476      1000         
       228   0.054557002   -373.43188     -373.37732      84.414267     -1503.3704      1000         
       230   0.087160328   -373.46672     -373.37956      134.86033     -302.17595      1000         
       232   0.056557461   -373.43266     -373.3761       87.509511      1093.4987      1000         
       234   0.068876346   -373.44577     -373.37689      106.57012      548.4108       1000         
       236   0.079776897   -373.4566      -373.37683      123.43619     -1275.6858      1000         
       238   0.051439316   -373.42501     -373.37357      79.590374     -1980.0135      1000         
       240   0.084990556   -373.46042     -373.37543      131.50311     -656.32148      1000         
       242   0.073116045   -373.44661     -373.37349      113.13007      1520.6994      1000         
       244   0.055833527   -373.42703     -373.37119      86.389393      2063.3129      1000         
       246   0.084587817   -373.45758     -373.373        130.87997      436.89952      1000         
       248   0.053078162   -373.4219      -373.36882      82.126107     -1058.0067      1000         
       250   0.07608682    -373.44524     -373.36916      117.72665     -796.77257      1000         
       252   0.09798743    -373.4671      -373.36911      151.61275      817.6896       1000         
       254   0.065223643   -373.42947     -373.36425      100.91841      1589.7099      1000         
       256   0.094872396   -373.46123     -373.36636      146.79296      67.903238      1000         
       258   0.066266992   -373.4287      -373.36244      102.53275     -1882.0814      1000         
       260   0.056929555   -373.41752     -373.36059      88.085241     -2072.8462      1000         
       262   0.099229023   -373.46129     -373.36206      153.53383     -293.13466      1000         
       264   0.072666254   -373.42935     -373.35668      112.43412      1583.2855      1000         
       266   0.098541848   -373.45582     -373.35728      152.47058      1222.7324      1000         
       268   0.097387577   -373.45229     -373.3549       150.68462     -538.04046      1000         
       270   0.05799686    -373.40845     -373.35045      89.736646     -1220.577       1000         
       272   0.096625938   -373.44859     -373.35196      149.50616      36.772931      1000         
       274   0.084158754   -373.43216     -373.348        130.21609      1960.3497      1000         
       276   0.088321386   -373.43384     -373.34552      136.6568       1924.3185      1000         
       278   0.12474215    -373.47045     -373.34571      193.00945     -319.40435      1000         
       280   0.076845917   -373.41628     -373.33944      118.90118     -2102.4328      1000         
       282   0.094548385   -373.43396     -373.33941      146.29163     -1738.2303      1000         
       284   0.10236803    -373.44036     -373.33799      158.39071      266.66897      1000         
       286   0.072233692   -373.40441     -373.33218      111.76483      1386.4628      1000         
       288   0.13111738    -373.4656      -373.33448      202.87364      67.885196      1000         
       290   0.10697885    -373.43542     -373.32844      165.52487     -1572.959       1000         
       292   0.1025315     -373.4283      -373.32577      158.64364     -1344.4031      1000         
       294   0.13530224    -373.46177     -373.32647      209.34873      813.26458      1000         
       296   0.080580811   -373.39972     -373.31914      124.68006      2711.4301      1000         
       298   0.11473984    -373.43548     -373.32074      177.5332       1816.3115      1000         
       300   0.120229      -373.43776     -373.31753      186.02641     -659.51748      1000         
       302   0.094117007   -373.40684     -373.31273      145.62417     -1891.2607      1000         
       304   0.14706023    -373.46146     -373.3144       227.54148     -873.70994      1000         
       306   0.11641154    -373.42545     -373.30904      180.11977      1059.985       1000         
       308   0.11132022    -373.41821     -373.30689      172.24215      1041.9373      1000         
       310   0.14500072    -373.45239     -373.30739      224.35488     -1057.1471      1000         
       312   0.10146175    -373.40278     -373.30131      156.98845     -2384.5181      1000         
       314   0.14058976    -373.44285     -373.30226      217.52994     -1336.0383      1000         
       316   0.1474422     -373.44847     -373.30103      228.1325       1332.1278      1000         
       318   0.1038571     -373.39925     -373.29539      160.6947       2698.2863      1000         
       320   0.15008221    -373.44884     -373.29876      232.21731      1142.3936      1000         
       322   0.1137055     -373.40736     -373.29366      175.9328      -968.02361      1000         
       324   0.12423456    -373.41697     -373.29273      192.22408     -1266.0826      1000         
       326   0.17239236    -373.46751     -373.29512      266.73707      416.14208      1000         
       328   0.12246408    -373.41147     -373.289        189.48467      1862.1861      1000         
       330   0.14995203    -373.44207     -373.29212      232.01588      609.45309      1000         
       332   0.13059832    -373.42085     -373.29025      202.07052     -1863.5822      1000         
       334   0.099088578   -373.38646     -373.28737      153.31652     -2691.4242      1000         
       336   0.16007139    -373.45155     -373.29148      247.67324     -1015.4763      1000         
       338   0.13764922    -373.42597     -373.28832      212.98015      1550.7709      1000         
       340   0.14343361    -373.43237     -373.28894      221.93013      1921.6577      1000         
       342   0.16138994    -373.45277     -373.29138      249.71339      28.11675       1000         
       344   0.10511231    -373.39288     -373.28777      162.63684     -1285.9402      1000         
       346   0.14080375    -373.43211     -373.2913       217.86104     -459.41702      1000         
       348   0.14619806    -373.43879     -373.2926       226.20748      1703.3667      1000         
       350   0.12027862    -373.41087     -373.29059      186.10318      2340.8921      1000         
       352   0.16150402    -373.4578      -373.2963       249.88989      193.28499      1000         
       354   0.1114382     -373.40562     -373.29418      172.42468     -2154.5804      1000         
       356   0.11112812    -373.40688     -373.29575      171.94491     -2339.4345      1000         
       358   0.14777456    -373.4485      -373.30072      228.64674     -328.24247      1000         
       360   0.11192701    -373.41014     -373.29822      173.18101      1503.7783      1000         
       362   0.15379569    -373.45818     -373.30439      237.96304      745.22075      1000         
       364   0.13526501    -373.4413      -373.30603      209.29113     -1156.9935      1000         
       366   0.097539042   -373.40371     -373.30617      150.91897     -1545.7472      1000         
       368   0.1327438     -373.44535     -373.3126       205.39014      235.06291      1000         
       370   0.098886504   -373.41139     -373.3125       153.00386      2441.3683      1000         
       372   0.11181253    -373.42786     -373.31604      173.00387      2231.1812      1000         
       374   0.13628189    -373.45788     -373.3216       210.86452     -167.97652      1000         
       376   0.094214033   -373.41593     -373.32172      145.7743      -1890.2823      1000         
       378   0.11861352    -373.44623     -373.32762      183.52682     -1372.4448      1000         
       380   0.10717152    -373.4388      -373.33163      165.82299      564.39235      1000         
       382   0.078884267   -373.41132     -373.33244      122.05505      1250.3738      1000         
       384   0.11517602    -373.45497     -373.33979      178.20809     -369.46951      1000         
       386   0.084766056   -373.42593     -373.34117      131.15575     -1977.2832      1000         
       388   0.090220509   -373.43527     -373.34505      139.59525     -1560.0695      1000         
       390   0.10899487    -373.46078     -373.35178      168.6442       659.76838      1000         
       392   0.066730003   -373.41893     -373.3522       103.24915      2358.1865      1000         
       394   0.087805215   -373.44606     -373.35826      135.85814      1512.9745      1000         
       396   0.07811481    -373.43957     -373.36146      120.86449     -505.6014       1000         
       398   0.064019603   -373.42714     -373.36312      99.05544      -1268.2608      1000         
       400   0.097487229   -373.46717     -373.36968      150.83881     -150.0099       1000         
       402   0.070725837   -373.44227     -373.37154      109.43178      1328.2324      1000         
       404   0.067192471   -373.44206     -373.37487      103.96472      910.98224      1000         
       406   0.07228697    -373.45159     -373.3793       111.84727     -1058.874       1000         
       408   0.041628215   -373.42088     -373.37925      64.409977     -2169.0536      1000         
       410   0.067439796   -373.45073     -373.38329      104.34739     -1221.3022      1000         
       412   0.069882367   -373.4559      -373.38602      108.1267       843.90623      1000         
       414   0.056276904   -373.44299     -373.38672      87.075416      1679.6949      1000         
       416   0.075656827   -373.46701     -373.39135      117.06134      467.48683      1000         
       418   0.045225215   -373.43641     -373.39119      69.975498     -868.21402      1000         
       420   0.047031743   -373.43985     -373.39282      72.77068      -642.94738      1000         
       422   0.063473752   -373.45931     -373.39584      98.210863      901.74093      1000         
       424   0.042198607   -373.43698     -373.39478      65.292525      1818.1034      1000         
       426   0.064371105   -373.46235     -373.39798      99.599308      621.58386      1000         
       428   0.054432478   -373.45285     -373.39842      84.221595     -1338.887       1000         
       430   0.037903872   -373.43591     -373.398        58.647422     -1926.1712      1000         
       432   0.060066915   -373.46084     -373.40077      92.939576     -679.95309      1000         
       434   0.042810377   -373.44246     -373.39965      66.239098      919.19473      1000         
       436   0.052217079   -373.4529      -373.40068      80.79378       850.35065      1000         
       438   0.064074105   -373.46625     -373.40217      99.13977      -559.75459      1000         
       440   0.037353799   -373.43774     -373.40039      57.796313     -1213.9575      1000         
       442   0.05334344    -373.45558     -373.40224      82.536562     -156.42981      1000         
       444   0.046895337   -373.44893     -373.40203      72.559623      1622.0981      1000         
       446   0.035667716   -373.43642     -373.40075      55.187492      1969.165       1000         
       448   0.063547009   -373.46654     -373.40299      98.324211      312.81765      1000         
       450   0.045140737   -373.44598     -373.40084      69.844788     -1352.2906      1000         
       452   0.051972103   -373.45319     -373.40122      80.414737     -1359.0429      1000         
       454   0.061998443   -373.46413     -373.40213      95.928166      54.159132      1000         
       456   0.033326231   -373.43271     -373.39939      51.564589      989.42461      1000         
       458   0.055066836   -373.45635     -373.40129      85.203117      43.382341      1000         
       460   0.049525611   -373.44945     -373.39992      76.629361     -1429.2684      1000         
       462   0.041881703   -373.44047     -373.39859      64.802191     -1461.7708      1000         
       464   0.068452548   -373.46864     -373.40019      105.91439      196.22912      1000         
       466   0.044548434   -373.44196     -373.39741      68.928337      1914.7654      1000         
       468   0.049937303   -373.44757     -373.39764      77.266357      1651.0981      1000         
       470   0.059706608   -373.45739     -373.39769      92.382085     -112.69072      1000         
       472   0.038525127   -373.43346     -373.39493      59.608671     -1155.2288      1000         
       474   0.067426425   -373.46374     -373.39631      104.3267      -481.10613      1000         
       476   0.060541534   -373.45526     -373.39472      93.673938      960.20808      1000         
       478   0.043382901   -373.43601     -373.39262      67.124946      1045.59        1000         
       480   0.064217926   -373.45829     -373.39407      99.362299     -648.44409      1000         
       482   0.038617223   -373.42938     -373.39076      59.751168     -2001.9896      1000         
       484   0.056201966   -373.44716     -373.39095      86.959466     -1476.424       1000         
       486   0.077948579   -373.46906     -373.39111      120.60729      480.70641      1000         
       488   0.052379204   -373.43959     -373.38721      81.044631      1742.6493      1000         
       490   0.074479454   -373.46331     -373.38883      115.23963      846.82474      1000         
       492   0.051790937   -373.43774     -373.38595      80.134425     -678.33438      1000         
       494   0.040528405   -373.42488     -373.38436      62.708277     -842.34587      1000         
       496   0.076041675   -373.46189     -373.38585      117.6568       554.04746      1000         
       498   0.056288487   -373.43814     -373.38185      87.093337      1832.9884      1000         
       500   0.075429256   -373.45771     -373.38229      116.70922      990.77457      1000         
       502   0.077214248   -373.45817     -373.38096      119.47108     -1141.5194      1000         
       504   0.042982265   -373.42039     -373.37741      66.505054     -2145.9951      1000         
       506   0.073117804   -373.45199     -373.37887      113.13279     -1110.5404      1000         
       508   0.065448042   -373.44176     -373.37632      101.26562      810.08012      1000         
       510   0.064533582   -373.43878     -373.37425      99.850703      1219.2837      1000         
       512   0.095890841   -373.47113     -373.37523      148.36877     -251.74085      1000         
       514   0.056849033   -373.42738     -373.37053      87.960652     -1323.584       1000         
       516   0.068238538   -373.43898     -373.37074      105.58326     -553.53555      1000         
       518   0.077487394   -373.44779     -373.37031      119.89371      1446.1933      1000         
       520   0.052516909   -373.41837     -373.36586      81.257698      2339.3074      1000         
       522   0.10045303    -373.46871     -373.36826      155.4277       750.8145       1000         
       524   0.081068412   -373.44502     -373.36395      125.43451     -1346.7344      1000         
       526   0.073125722   -373.4352      -373.36208      113.14504     -1766.7535      1000         
       528   0.098631327   -373.46185     -373.36322      152.60903     -304.59508      1000         
       530   0.054074553   -373.41194     -373.35786      83.667789      1175.604       1000         
       532   0.080673145   -373.44002     -373.35935      124.82292      476.92735      1000         
       534   0.089684802   -373.44719     -373.35751      138.76636     -1369.1191      1000         
       536   0.06737239    -373.42106     -373.35369      104.2431      -1877.6649      1000         
       538   0.11093521    -373.46634     -373.35541      171.64642     -289.26562      1000         
       540   0.085958491   -373.43742     -373.35146      133.00076      1982.9936      1000         
       542   0.077344443   -373.42693     -373.34958      119.67253      2243.127       1000         
       544   0.10664037    -373.45717     -373.35053      165.00116      280.91004      1000         
       546   0.068918177   -373.41437     -373.34545      106.63484     -1307.2378      1000         
       548   0.10124168    -373.44761     -373.34637      156.64795     -945.99962      1000         
       550   0.10899365    -373.45435     -373.34535      168.64231      796.79426      1000         
       552   0.072350223   -373.41279     -373.34044      111.94514      1454.333       1000         
       554   0.1122323     -373.45544     -373.34321      173.65337     -280.27917      1000         
       556   0.080602837   -373.41917     -373.33857      124.71414     -2177.614       1000         
       558   0.087113918   -373.42453     -373.33741      134.78852     -2076.1811      1000         
       560   0.13016816    -373.46922     -373.33905      201.40494      56.047661      1000         
       562   0.087542426   -373.4206      -373.33305      135.45154      2037.939       1000         
       564   0.11470971    -373.44985     -373.33514      177.48659      1467.0554      1000         
       566   0.10221189    -373.43491     -373.3327       158.14911     -455.24592      1000         
       568   0.071836866   -373.40113     -373.32929      111.15084     -1161.4759      1000         
       570   0.12308643    -373.45511     -373.33202      190.44761      115.46287      1000         
       572   0.10111423    -373.42898     -373.32787      156.45074      1924.2542      1000         
       574   0.10975409    -373.43703     -373.32727      169.81892      1558.9186      1000         
       576   0.13287319    -373.46085     -373.32798      205.59035     -851.56206      1000         
       578   0.08319021    -373.40631     -373.32312      128.71749     -2477.9265      1000         
       580   0.11488093    -373.4398      -373.32492      177.75151     -1769.3116      1000         
       582   0.1177048     -373.44189     -373.32419      182.12079      522.61933      1000         
       584   0.09045547    -373.41075     -373.32029      139.95879      1636.4494      1000         
       586   0.13540513    -373.45913     -373.32373      209.50794      250.4614       1000         
       588   0.09512653    -373.41449     -373.31937      147.18617     -1321.8392      1000         
       590   0.099319535   -373.4184      -373.31908      153.67387     -996.78984      1000         
       592   0.13449604    -373.45584     -373.32135      208.10134      1118.6288      1000         
       594   0.095375412   -373.41146     -373.31608      147.57126      2675.6423      1000         
       596   0.13840145    -373.45801     -373.31961      214.14404      1392.5537      1000         
       598   0.12326362    -373.44081     -373.31755      190.72177     -1154.3442      1000         
       600   0.092190858   -373.40733     -373.31514      142.6439      -2200.7727      1000         
       602   0.13231634    -373.45101     -373.3187       204.72874     -937.77609      1000         
       604   0.096247377   -373.41129     -373.31505      148.92042      1048.1173      1000         
       606   0.11078073    -373.42681     -373.31603      171.4074       947.11214      1000         
       608   0.1368911     -373.45444     -373.31755      211.80713     -1007.898       1000         
       610   0.096590554   -373.4105      -373.31391      149.45141     -2041.6457      1000         
       612   0.13172018    -373.44861     -373.31689      203.80633     -779.36434      1000         
       614   0.12085213    -373.43754     -373.31668      186.99056      1781.459       1000         
       616   0.090689959   -373.40484     -373.31415      140.32161      2709.3982      1000         
       618   0.13397512    -373.4524      -373.31842      207.29533      857.74212      1000         
       620   0.099532067   -373.41478     -373.31525      154.00272     -1260.5502      1000         
       622   0.11441217    -373.43078     -373.31637      177.02621     -1442.9404      1000         
       624   0.14146854    -373.46095     -373.31948      218.88966      268.25758      1000         
       626   0.092252033   -373.40781     -373.31556      142.73856      1542.0606      1000         
       628   0.12311261    -373.44299     -373.31988      190.48812      261.77106      1000         
       630   0.10641216    -373.42543     -373.31902      164.64805     -1907.9367      1000         
       632   0.091780929   -373.40976     -373.31798      142.00963     -2340.3116      1000         
       634   0.14345918    -373.46611     -373.32265      221.96971     -458.56743      1000         
       636   0.11213017    -373.43266     -373.32053      173.49536      1908.3548      1000         
       638   0.11418087    -373.43681     -373.32262      176.66833      1944.5752      1000         
       640   0.1158069     -373.44078     -373.32497      179.18423     -18.928761      1000         
       642   0.070654754   -373.3933      -373.32264      109.32179     -1247.3834      1000         
       644   0.1112006     -373.4378      -373.3266       172.05705     -401.42065      1000         
       646   0.1160038     -373.44364     -373.32763      179.48888      1528.9262      1000         
       648   0.10473329    -373.43194     -373.32721      162.0504       1832.795       1000         
       650   0.13547662    -373.4678      -373.33233      209.61855     -289.51701      1000         
       652   0.086752663   -373.4175      -373.33074      134.22956     -2279.6779      1000         
       654   0.089655756   -373.42265     -373.333        138.72142     -2086.4006      1000         
       656   0.10936206    -373.44627     -373.33691      169.21234      29.947773      1000         
       658   0.078694581   -373.41385     -373.33515      121.76155      1633.3315      1000         
       660   0.11806366    -373.45876     -373.3407       182.67605      755.40823      1000         
       662   0.099799795   -373.44155     -373.34175      154.41696     -987.24076      1000         
       664   0.076458421   -373.41877     -373.34232      118.30162     -1195.2821      1000         
       666   0.10683978    -373.45466     -373.34782      165.3097       519.7303       1000         
       668   0.076636822   -373.42418     -373.34754      118.57765      2314.0703      1000         
       670   0.092798077   -373.44404     -373.35124      143.58343      1726.9991      1000         
       672   0.1039412     -373.45956     -373.35562      160.82483     -624.44716      1000         
       674   0.065436469   -373.42105     -373.35561      101.24771     -2033.8702      1000         
       676   0.087843996   -373.44862     -373.36077      135.91815     -1271.4215      1000         
       678   0.07298841    -373.43623     -373.36324      112.93258      614.62315      1000         
       680   0.059136812   -373.42329     -373.36415      91.500458      1112.8283      1000         
       682   0.093504202   -373.46377     -373.37027      144.676       -412.07239      1000         
       684   0.066875918   -373.43801     -373.37114      103.47492     -1689.6922      1000         
       686   0.075235325   -373.45015     -373.37491      116.40916     -1039.2297      1000         
       688   0.081861533   -373.46188     -373.38002      126.66168      1059.3026      1000         
       690   0.044457043   -373.42437     -373.37991      68.786931      2324.5998      1000         
       692   0.067604749   -373.45263     -373.38502      104.60262      1189.3547      1000         
       694   0.056539279   -373.44343     -373.38689      87.481379     -767.39527      1000         
       696   0.048342812   -373.43653     -373.38819      74.799253     -1350.9844      1000         
       698   0.074627084   -373.46793     -373.39331      115.46805     -201.23804      1000         
       700   0.047376627   -373.44114     -373.39377      73.304307      1088.8172      1000         
       702   0.052845942   -373.44944     -373.39659      81.7668        553.7216       1000         
       704   0.058419734   -373.4581      -373.39968      90.390946     -1181.7767      1000         
       706   0.035987199   -373.43545     -373.39946      55.681817     -1895.0952      1000         
       708   0.060310045   -373.46346     -373.40315      93.315763     -718.70468      1000         
       710   0.050832152   -373.45542     -373.40458      78.650929      1227.4654      1000         
       712   0.036343154   -373.44114     -373.4048       56.232575      1751.5768      1000         
       714   0.053546414   -373.4617      -373.40816      82.850617      405.09303      1000         
       716   0.031346058   -373.43865     -373.4073       48.500732     -863.40191      1000         
       718   0.044789852   -373.4538      -373.40901      69.301874     -609.11039      1000         
       720   0.057533166   -373.46879     -373.41125      89.019188      766.30621      1000         
       722   0.035216312   -373.4453      -373.41008      54.48905       1388.447       1000         
       724   0.051501539   -373.46443     -373.41293      79.686648      125.60389      1000         
       726   0.034500793   -373.44696     -373.41245      53.381951     -1530.4865      1000         
       728   0.026961099   -373.43921     -373.41225      41.716028     -1723.9843      1000         
       730   0.051443557   -373.46604     -373.4146       79.596935     -290.2878       1000         
       732   0.035546813   -373.44866     -373.41312      55.000423      1188.0361      1000         
       734   0.047475101   -373.46197     -373.4145       73.456674      930.35683      1000         
       736   0.047773616   -373.46281     -373.41503      73.918556     -446.41992      1000         
       738   0.02411852    -373.43755     -373.41343      37.317798     -979.06801      1000         
       740   0.045313328   -373.46064     -373.41533      70.111832      41.467049      1000         
       742   0.038860473   -373.45335     -373.41449      60.12754       1526.3922      1000         
       744   0.037277131   -373.45115     -373.41387      57.677687      1508.8487      1000         
       746   0.056209336   -373.47163     -373.41542      86.97087      -184.3626       1000         
       748   0.029310433   -373.44234     -373.41303      45.351076     -1557.8671      1000         
       750   0.037664029   -373.45144     -373.41377      58.276321     -1259.8053      1000         
       752   0.043452175   -373.45745     -373.41399      67.232131      236.21091      1000         
       754   0.027405754   -373.43902     -373.41161      42.404028      1016.0078      1000         
       756   0.057301442   -373.47082     -373.41352      88.66065       10.574421      1000         
       758   0.043915137   -373.45511     -373.41119      67.948456     -1253.5633      1000         
       760   0.038110828   -373.44834     -373.41023      58.967639     -1065.6454      1000         
       762   0.05493705    -373.46613     -373.4112       85.002303      581.32134      1000         
       764   0.026697759   -373.43458     -373.40789      41.308571      1975.3165      1000         
       766   0.044365407   -373.45323     -373.40887      68.645145      1343.0899      1000         
       768   0.050762657   -373.45843     -373.40767      78.543401     -463.02941      1000         
       770   0.035702889   -373.44071     -373.40501      55.241915     -1326.6163      1000         
       772   0.064124533   -373.4701      -373.40597      99.217795     -501.44531      1000         
       774   0.04691976    -373.44981     -373.40289      72.597411      889.06569      1000         
       776   0.041493374   -373.44293     -373.40143      64.201343      783.71359      1000         
       778   0.060551244   -373.46214     -373.40159      93.688961     -857.63597      1000         
       780   0.034399747   -373.43205     -373.39765      53.225605     -1891.7668      1000         
       782   0.05749493    -373.45539     -373.39789      88.960027     -1056.5239      1000         
       784   0.064930553   -373.46118     -373.39625      100.46492      968.2002       1000         
       786   0.041602477   -373.43379     -373.39219      64.370154      1955.7987      1000         
       788   0.06997291    -373.46325     -373.39328      108.2668       776.05515      1000         
       790   0.046669824   -373.4356      -373.38893      72.210694     -777.54716      1000         
       792   0.051817393   -373.43934     -373.38753      80.175359     -860.29414      1000         
       794   0.082675029   -373.47016     -373.38749      127.92037      553.60237      1000         
       796   0.052631202   -373.43461     -373.38198      81.43454       1624.0699      1000         
       798   0.07586529    -373.4585      -373.38264      117.38389      517.5095       1000         
       800   0.065990803   -373.44545     -373.37946      102.10541     -1539.6497      1000         
       802   0.041984392   -373.41811     -373.37613      64.961079     -2208.3778      1000         
       804   0.081068836   -373.45842     -373.37735      125.43516     -824.72738      1000         
       806   0.065211476   -373.43816     -373.37295      100.89959      1190.8586      1000         
       808   0.075916295   -373.44763     -373.37171      117.4628       1384.6072      1000         
       810   0.095588679   -373.46667     -373.37108      147.90124     -186.80225      1000         
       812   0.054077607   -373.4202      -373.36612      83.672514     -1146.3877      1000         
       814   0.080027914   -373.44705     -373.36703      123.82458     -255.54878      1000         
       816   0.080097766   -373.44535     -373.36526      123.93266      1660.8412      1000         
       818   0.060238417   -373.42172     -373.36149      93.204935      2135.7598      1000         
       820   0.10209329    -373.46572     -373.36363      157.96562      204.29278      1000         
       822   0.069677899   -373.42862     -373.35894      107.81034     -1836.5258      1000         
       824   0.075272377   -373.43356     -373.35829      116.46649     -1956.2582      1000         
       826   0.10071236    -373.45994     -373.35923      155.82894     -204.95548      1000         
       828   0.062893415   -373.41686     -373.35397      97.312926      1271.3369      1000         
       830   0.10182046    -373.45832     -373.3565       157.54348      440.23007      1000         
       832   0.091807572   -373.44559     -373.35378      142.05086     -1270.9408      1000         
       834   0.068750699   -373.41982     -373.35107      106.37571     -1493.3742      1000         
       836   0.10577755    -373.45924     -373.35346      163.66615      269.49105      1000         
       838   0.070609041   -373.41976     -373.34915      109.25106      2328.0082      1000         
       840   0.083385039   -373.43293     -373.34955      129.01895      2061.1111      1000         
       842   0.10596184    -373.45578     -373.34981      163.95129     -174.19103      1000         
       844   0.072960976   -373.41865     -373.34569      112.89013     -1681.932       1000         
       846   0.11064635    -373.4583      -373.34765      171.19949     -1087.7887      1000         
       848   0.10025758    -373.44627     -373.34601      155.12528      760.98585      1000         
       850   0.071768654   -373.4147      -373.34293      111.04529      1247.5427      1000         
       852   0.10710729    -373.45276     -373.34566      165.72361     -517.13109      1000         
       854   0.074224878   -373.41573     -373.3415       114.84573     -2123.4567      1000         
       856   0.094388559   -373.43616     -373.34177      146.04433     -1648.8189      1000         
       858   0.12291605    -373.46599     -373.34308      190.18399      642.21512      1000         
       860   0.079171437   -373.41715     -373.33798      122.49938      2329.0539      1000         
       862   0.10986113    -373.45086     -373.341        169.98454      1355.9416      1000         
       864   0.088595065   -373.42683     -373.33824      137.08025     -656.12289      1000         
       866   0.076902446   -373.4132      -373.3363       118.98864     -1244.4839      1000         
       868   0.12762911    -373.46679     -373.33916      197.47636      134.19191      1000         
       870   0.09683813    -373.43163     -373.3348       149.83447      1765.9845      1000         
       872   0.10681955    -373.44255     -373.33573      165.27841      1102.6594      1000         
       874   0.10627537    -373.44185     -373.33557      164.43641     -1236.4313      1000         
       876   0.063726769   -373.39557     -373.33184      98.602348     -2487.8269      1000         
       878   0.10889423    -373.44332     -373.33442      168.48849     -1397.1735      1000         
       880   0.11123311    -373.44404     -373.33281      172.10736      959.02058      1000         
       882   0.10343723    -373.434       -373.33056      160.04505      1762.3079      1000         
       884   0.13546227    -373.46858     -373.33311      209.59635      201.58635      1000         
       886   0.083691137   -373.41247     -373.32878      129.49256     -1251.3014      1000         
       888   0.092136282   -373.42167     -373.32954      142.55946     -746.06936      1000         
       890   0.112567      -373.44336     -373.33079      174.17125      1331.7551      1000         
       892   0.084609819   -373.41107     -373.32646      130.91401      2473.4873      1000         
       894   0.13408848    -373.46417     -373.33009      207.47072      845.80766      1000         
       896   0.11009735    -373.43732     -373.32722      170.35004     -1599.6269      1000         
       898   0.089644334   -373.41526     -373.32561      138.70375     -2281.2723      1000         
       900   0.12470623    -373.4533      -373.32859      192.95388     -714.06525      1000         
       902   0.087948618   -373.41239     -373.32444      136.08002      1210.3342      1000         
       904   0.1132527     -373.43948     -373.32623      175.23221      865.56399      1000         
       906   0.12570895    -373.45222     -373.32651      194.50535     -1037.6658      1000         
       908   0.086908926   -373.41002     -373.32311      134.47134     -1767.9374      1000         
       910   0.12194754    -373.44806     -373.32612      188.68545     -260.17941      1000         
       912   0.10225693    -373.42668     -373.32442      158.21881      2162.6935      1000         
       914   0.091313963   -373.41419     -373.32288      141.28711      2581.9938      1000         
       916   0.13500289    -373.46113     -373.32612      208.88556      401.0827       1000         
       918   0.099401493   -373.42179     -373.32239      153.80068     -1643.6738      1000         
       920   0.11862161    -373.44248     -373.32386      183.53934     -1559.4894      1000         
       922   0.12890227    -373.45429     -373.32539      199.44627      291.14364      1000         
       924   0.082608811   -373.40412     -373.32151      127.81792      1381.2741      1000         
       926   0.11897434    -373.44453     -373.32555      184.08511     -43.427566      1000         
       928   0.098564572   -373.42209     -373.32352      152.50574     -1981.7903      1000         
       930   0.092827022   -373.41554     -373.32271      143.62822     -1985.207       1000         
       932   0.13705983    -373.46346     -373.3264       212.0682       178.48574      1000         
       934   0.098558102   -373.42143     -373.32287      152.49573      2381.3186      1000         
       936   0.11583998    -373.44105     -373.32521      179.23541      1961.0089      1000         
       938   0.11984192    -373.44596     -373.32612      185.42748     -251.28429      1000         
       940   0.083803462   -373.40735     -373.32354      129.66636     -1432.9247      1000         
       942   0.12581172    -373.45322     -373.3274       194.66437     -468.33031      1000         
       944   0.10913724    -373.43574     -373.3266       168.86448      1395.1585      1000         
       946   0.094047977   -373.41993     -373.32588      145.51736      1423.6559      1000         
       948   0.12364825    -373.45331     -373.32967      191.3169      -763.44828      1000         
       950   0.082939379   -373.40974     -373.3268       128.32939     -2428.8611      1000         
       952   0.10765131    -373.43676     -373.32911      166.56536     -1783.6931      1000         
       954   0.12701162    -373.45868     -373.33167      196.52092      573.82762      1000         
       956   0.088602489   -373.41748     -373.32888      137.09174      2005.5175      1000         
       958   0.12066968    -373.4544      -373.33373      186.70825      815.05757      1000         
       960   0.089628109   -373.42207     -373.33244      138.67865     -990.17992      1000         
       962   0.07916238    -373.41165     -373.33248      122.48537     -1081.3992      1000         
       964   0.12085868    -373.45778     -373.33692      187.00068      680.27637      1000         
       966   0.08935205    -373.42397     -373.33462      138.25151      2243.9371      1000         
       968   0.11218087    -373.45028     -373.3381       173.57379      1258.1349      1000         
       970   0.10996807    -373.44981     -373.33984      170.15        -1188.8982      1000         
       972   0.069900616   -373.40819     -373.33829      108.15494     -2306.6792      1000         
       974   0.10597284    -373.44871     -373.34273      163.96831     -1141.2792      1000         
       976   0.092077066   -373.43502     -373.34294      142.46784      940.79766      1000         
       978   0.087716691   -373.43117     -373.34345      135.72117      1266.4687      1000         
       980   0.11676532    -373.46492     -373.34816      180.66716     -442.64625      1000         
       982   0.072441291   -373.4189      -373.34646      112.08604     -1611.6972      1000         
       984   0.086498425   -373.43599     -373.34949      133.83619     -716.64514      1000         
       986   0.092671916   -373.44511     -373.35243      143.38823      1490.3664      1000         
       988   0.062526925   -373.41313     -373.35061      96.745868      2468.1543      1000         
       990   0.10655324    -373.4628      -373.35624      164.86635      836.63564      1000         
       992   0.0847149     -373.44068     -373.35596      131.0766      -1282.6455      1000         
       994   0.0781942     -373.43543     -373.35724      120.98733     -1647.7186      1000         
       996   0.10210999    -373.46421     -373.3621       157.99145     -148.78965      1000         
       998   0.057460825   -373.41784     -373.36038      88.907257      1253.5007      1000         
      1000   0.076962382   -373.44114     -373.36417      119.08138      449.33913      1000         
      1002   0.079918598   -373.44603     -373.36611      123.65544     -1437.1868      1000         
      1004   0.058059612   -373.42354     -373.36548      89.833741     -1934.9253      1000         
      1006   0.096877061   -373.46718     -373.3703       149.89471     -372.7249       1000         
      1008   0.076027263   -373.4469      -373.37087      117.6345       1777.0141      1000         
      1010   0.065069381   -373.43698     -373.37191      100.67973      2006.5857      1000         
      1012   0.081853152   -373.45786     -373.37601      126.64871      221.46336      1000         
      1014   0.045497442   -373.42005     -373.37455      70.396706     -1147.237       1000         
      1016   0.07074554    -373.44847     -373.37773      109.46226     -700.31948      1000         
      1018   0.078445997   -373.45874     -373.3803       121.37693      891.38805      1000         
      1020   0.052223579   -373.43134     -373.37912      80.803837      1383.9512      1000         
      1022   0.080596682   -373.46446     -373.38386      124.70461     -240.88277      1000         
      1024   0.051857092   -373.43491     -373.38305      80.236785     -1948.527       1000         
      1026   0.052125554   -373.43621     -373.38408      80.652168     -1826.1813      1000         
      1028   0.07970603    -373.46759     -373.38789      123.32654      33.682624      1000         
      1030   0.049948126   -373.43614     -373.38619      77.283104      1649.8277      1000         
      1032   0.070936633   -373.46067     -373.38973      109.75794      1107.9372      1000         
      1034   0.060684239   -373.45122     -373.39053      93.89474      -494.59702      1000         
      1036   0.035220839   -373.42481     -373.38959      54.496054     -980.71109      1000         
      1038   0.066214894   -373.45936     -373.39315      102.45214      200.33785      1000         
      1040   0.049874269   -373.44217     -373.39229      77.168827      1680.656       1000         
      1042   0.057616651   -373.45102     -373.39341      89.148362      1309.9136      1000         
      1044   0.073918218   -373.46987     -373.39595      114.37124     -679.95082      1000         
      1046   0.03876792    -373.43286     -373.39409      59.984336     -1961.3173      1000         
      1048   0.05669895    -373.45319     -373.39649      87.728434     -1313.1364      1000         
      1050   0.053891066   -373.45112     -373.39723      83.383887      497.65825      1000         
      1052   0.03718929    -373.43293     -373.39574      57.541773      1251.2617      1000         
      1054   0.069719693   -373.46885     -373.39913      107.875        62.34505       1000         
      1056   0.045671246   -373.44297     -373.3973       70.665627     -1184.3654      1000         
      1058   0.048753859   -373.44667     -373.39792      75.435253     -835.76645      1000         
      1060   0.065124311   -373.46514     -373.40002      100.76472      899.58658      1000         
      1062   0.034721719   -373.43196     -373.39724      53.723781      2074.1084      1000         
      1064   0.061991775   -373.46199     -373.4          95.917848      1041.4109      1000         
      1066   0.054799376   -373.45394     -373.39914      84.789284     -900.19478      1000         
      1068   0.038867134   -373.43674     -373.39788      60.137847     -1598.1691      1000         
      1070   0.064954008   -373.46523     -373.40027      100.50122     -514.69416      1000         
      1072   0.038498721   -373.43624     -373.39774      59.567814      960.44222      1000         
      1074   0.047790502   -373.44617     -373.39838      73.944683      724.62097      1000         
      1076   0.064248262   -373.46325     -373.399        99.409237     -894.29807      1000         
      1078   0.04002081    -373.43622     -373.3962       61.922892     -1700.4416      1000         
      1080   0.066723104   -373.46449     -373.39777      103.23848     -647.46944      1000         
      1082   0.058021836   -373.45444     -373.39642      89.775291      1351.8216      1000         
      1084   0.038508245   -373.43264     -373.39413      59.582549      1994.2615      1000         
      1086   0.066207465   -373.46207     -373.39586      102.44065      534.18595      1000         
      1088   0.042630118   -373.43491     -373.39228      65.960189     -1022.4603      1000         
      1090   0.057673013   -373.44978     -373.39211      89.235569     -981.90905      1000         
      1092   0.075839634   -373.46776     -373.39192      117.34419      486.09542      1000         
      1094   0.042583213   -373.42981     -373.38723      65.887615      1402.1993      1000         
      1096   0.068090038   -373.45662     -373.38853      105.35349      197.25423      1000         
      1098   0.054611093   -373.43954     -373.38493      84.49796      -1647.4176      1000         
      1100   0.048423093   -373.43077     -373.38235      74.923469     -1974.495       1000         
      1102   0.088839761   -373.47144     -373.3826       137.45886     -358.71269      1000         
      1104   0.063833087   -373.44044     -373.37661      98.766851      1558.9883      1000         
      1106   0.073764126   -373.44911     -373.37535      114.13282      1447.3894      1000         
      1108   0.07618636    -373.44854     -373.37235      117.88067     -238.53678      1000         
      1110   0.043993219   -373.41112     -373.36713      68.069271     -1137.5602      1000         
      1112   0.085637719   -373.45272     -373.36708      132.50445     -167.42819      1000         
      1114   0.087217364   -373.44895     -373.36173      134.94858      1655.4016      1000         
      1116   0.083633299   -373.44038     -373.35675      129.40307      1798.3394      1000         
      1118   0.11369577    -373.4684      -373.35471      175.91775     -303.54168      1000         
      1120   0.068077391   -373.41495     -373.34687      105.33392     -2173.5999      1000         
      1122   0.081956599   -373.42698     -373.34502      126.80877     -1936.8353      1000         
      1124   0.10372179    -373.44588     -373.34215      160.48534      110.51366      1000         
      1126   0.078472607   -373.41305     -373.33457      121.4181       1519.7869      1000         
      1128   0.1293217     -373.46376     -373.33444      200.09524      453.55353      1000         
      1130   0.10660182    -373.4336      -373.327        164.94151     -1258.5128      1000         
      1132   0.092561535   -373.41501     -373.32245      143.21744     -1261.4494      1000         
      1134   0.13332249    -373.45531     -373.32198      206.28553      740.10633      1000         
      1136   0.094963083   -373.40883     -373.31387      146.93328      2691.2749      1000         
      1138   0.12832657    -373.44178     -373.31345      198.55551      1896.2789      1000         
      1140   0.13998624    -373.44979     -373.3098       216.59614     -727.35913      1000         
      1142   0.099953074   -373.40356     -373.30361      154.65413     -2202.3         1000         
      1144   0.14220595    -373.44682     -373.30462      220.03062     -1273.1293      1000         
      1146   0.12012342    -373.41998     -373.29986      185.86304      851.86195      1000         
      1148   0.11278598    -373.40955     -373.29677      174.51006      1194.8598      1000         
      1150   0.15829096    -373.45636     -373.29807      244.91844     -776.15229      1000         
      1152   0.11540247    -373.40735     -373.29194      178.55847     -2220.9397      1000         
      1154   0.14407498    -373.43648     -373.29241      222.92251     -1293.3845      1000         
      1156   0.16011046    -373.45262     -373.29251      247.73368      1391.9395      1000         
      1158   0.10898467    -373.39579     -373.2868       168.62843      2931.4091      1000         
      1160   0.15165803    -373.44242     -373.29076      234.65551      1379.7799      1000         
      1162   0.12277125    -373.40992     -373.28715      189.95994     -1021.9708      1000         
      1164   0.12087833    -373.40685     -373.28597      187.03109     -1606.8214      1000         
      1166   0.17412116    -373.46379     -373.28967      269.41199      2.1337784      1000         
      1168   0.12852324    -373.41343     -373.28491      198.85981      1689.7056      1000         
      1170   0.15098193    -373.43886     -373.28788      233.60941      738.54253      1000         
      1172   0.14766506    -373.43603     -373.28837      228.47733     -1734.2135      1000         
      1174   0.10414025    -373.38965     -373.28551      161.1328      -2686.2908      1000         
      1176   0.1557905     -373.44594     -373.29015      241.04954     -1067.7598      1000         
      1178   0.13898961    -373.42822     -373.28923      215.05408      1624.3815      1000         
      1180   0.12811911    -373.41721     -373.28909      198.23452      2242.6184      1000         
      1182   0.15814128    -373.45185     -373.29371      244.68683      307.32971      1000         
      1184   0.10452877    -373.39526     -373.29073      161.73394     -1292.1288      1000         
      1186   0.13322815    -373.42722     -373.29399      206.13957     -728.45816      1000         
      1188   0.15435365    -373.45165     -373.2973       238.82636      1382.1625      1000         
      1190   0.11606271    -373.41091     -373.29484      179.58003      2280.3076      1000         
      1192   0.15588958    -373.45716     -373.30127      241.20286      317.51606      1000         
      1194   0.11477676    -373.41511     -373.30033      177.59033     -2114.9323      1000         
      1196   0.10115826    -373.40232     -373.30116      156.51887     -2439.6689      1000         
      1198   0.14360885    -373.45041     -373.3068       222.20129     -469.68008      1000         
      1200   0.10581505    -373.41044     -373.30463      163.72417      1567.221       1000         
      1202   0.13872018    -373.44829     -373.30957      214.6372       1036.808       1000         
      1204   0.13789179    -373.45014     -373.31225      213.35547     -955.70696      1000         
      1206   0.092371274   -373.40361     -373.31124      142.92305     -1576.7459      1000         
      1208   0.12943251    -373.44637     -373.31693      200.26669      28.115433      1000         
      1210   0.10671859    -373.42417     -373.31745      165.12218      2303.6259      1000         
      1212   0.10324616    -373.42191     -373.31866      159.74941      2350.8855      1000         
      1214   0.13752339    -373.46189     -373.32437      212.78546     -27.843874      1000         
      1216   0.090107445   -373.41301     -373.32291      139.42031     -1929.9617      1000         
      1218   0.10935175    -373.4362      -373.32685      169.19639     -1587.2521      1000         
      1220   0.11380889    -373.44425     -373.33044      176.09278      369.36636      1000         
      1222   0.075283512   -373.4039      -373.32862      116.48372      1329.4031      1000         
      1224   0.12107827    -373.456       -373.33492      187.34046     -170.88348      1000         
      1226   0.09877302    -373.43351     -373.33474      152.82827     -1913.185       1000         
      1228   0.095370648   -373.43162     -373.33625      147.56389     -1651.6652      1000         
      1230   0.12428989    -373.46603     -373.34174      192.30968      569.73956      1000         
      1232   0.072796707   -373.41259     -373.3398       112.63597      2512.3984      1000         
      1234   0.091155943   -373.43506     -373.3439       141.04261      1794.8852      1000         
      1236   0.093266675   -373.43907     -373.3458       144.30848     -427.29816      1000         
      1238   0.07049522    -373.41541     -373.34492      109.07495     -1461.702       1000         
      1240   0.11697624    -373.46701     -373.35004      180.99351     -452.58186      1000         
      1242   0.096182397   -373.44655     -373.35037      148.81988      1224.3911      1000         
      1244   0.081560239   -373.43281     -373.35125      126.19549      1041.064       1000         
      1246   0.096263018   -373.45157     -373.35531      148.94462     -1015.9713      1000         
      1248   0.054901478   -373.40824     -373.35333      84.947263     -2310.936       1000         
      1250   0.08468257    -373.44114     -373.35645      131.02657     -1396.0672      1000         
      1252   0.098756446   -373.45769     -373.35893      152.80262      916.62147      1000         
      1254   0.070893474   -373.42809     -373.3572       109.69116      2068.7858      1000         
      1256   0.10156033    -373.46366     -373.3621       157.14098      771.86712      1000         
      1258   0.06665191    -373.4273      -373.36065      103.12832     -897.77526      1000         
      1260   0.064776378   -373.42617     -373.36139      100.22637     -907.9828       1000         
      1262   0.098222844   -373.46339     -373.36517      151.977        699.35302      1000         
      1264   0.067920096   -373.43068     -373.36276      105.09055      1904.3521      1000         
      1266   0.09364589    -373.46007     -373.36642      144.89523      740.49836      1000         
      1268   0.080578122   -373.44734     -373.36676      124.6759      -1462.1496      1000         
      1270   0.048515935   -373.41383     -373.36531      75.067121     -2215.0175      1000         
      1272   0.083980933   -373.45297     -373.36899      129.94095     -860.8464       1000         
      1274   0.066491814   -373.43412     -373.36762      102.88061      1120.9377      1000         
      1276   0.075472951   -373.44384     -373.36837      116.77683      1257.2546      1000         
      1278   0.098015713   -373.469       -373.37098      151.65651     -372.31216      1000         
      1280   0.05665859    -373.42497     -373.36831      87.665986     -1327.4007      1000         
      1282   0.077521204   -373.44833     -373.37081      119.94603     -376.9693       1000         
      1284   0.0753985     -373.44684     -373.37144      116.66164      1603.9369      1000         
      1286   0.053243954   -373.42244     -373.36919      82.38263       2174.7384      1000         
      1288   0.093262808   -373.46633     -373.37306      144.3025       371.75885      1000         
      1290   0.064283644   -373.43477     -373.37048      99.463982     -1578.88        1000         
      1292   0.067035164   -373.43793     -373.3709       103.72132     -1699.7621      1000         
      1294   0.089669335   -373.46295     -373.37328      138.74243     -74.408013      1000         
      1296   0.052542777   -373.4222      -373.36966      81.297722      1245.0826      1000         
      1298   0.084288065   -373.45705     -373.37277      130.41617      359.68341      1000         
      1300   0.076727188   -373.44839     -373.37166      118.71747     -1361.2706      1000         
      1302   0.055109698   -373.42494     -373.36983      85.269435     -1616.4194      1000         
      1304   0.088801067   -373.46152     -373.37272      137.39899      64.564596      1000         
      1306   0.058411777   -373.4281      -373.36969      90.378634      2061.9149      1000         
      1308   0.068030662   -373.43824     -373.37021      105.26162      1910.6208      1000         
      1310   0.089961398   -373.46112     -373.37115      139.19433     -95.115805      1000         
      1312   0.058185252   -373.42581     -373.36763      90.02814      -1429.8985      1000         
      1314   0.089927448   -373.45946     -373.36953      139.1418      -821.85793      1000         
      1316   0.082181864   -373.45047     -373.36829      127.15731      895.88533      1000         
      1318   0.056738159   -373.42207     -373.36533      87.7891        1288.5547      1000         
      1320   0.09090765    -373.45865     -373.36775      140.65844     -462.83943      1000         
      1322   0.060562272   -373.42412     -373.36355      93.706026     -2071.534       1000         
      1324   0.07605501    -373.43935     -373.36329      117.67743     -1691.0123      1000         
      1326   0.10233718    -373.46602     -373.36368      158.34298      436.56347      1000         
      1328   0.06174113    -373.41968     -373.35794      95.530034      2043.9891      1000         
      1330   0.093370661   -373.45304     -373.35967      144.46937      1175.3141      1000         
      1332   0.078191064   -373.43364     -373.35545      120.98248     -660.50303      1000         
      1334   0.066952682   -373.41899     -373.35204      103.5937      -1124.3036      1000         
      1336   0.11599988    -373.4684      -373.3524       179.48282      282.68894      1000         
      1338   0.086035762   -373.43102     -373.34498      133.12032      1900.6835      1000         
      1340   0.099538988   -373.44256     -373.34302      154.01342      1224.8944      1000         
      1342   0.10709709    -373.44593     -373.33883      165.70783     -1157.4231      1000         
      1344   0.065445609   -373.39691     -373.33147      101.26185     -2485.8381      1000         
      1346   0.11339508    -373.44366     -373.33027      175.45251     -1470.6685      1000         
      1348   0.11887378    -373.44157     -373.3227       183.92951      880.40024      1000         
      1350   0.11382021    -373.42842     -373.3146       176.11029      1696.4761      1000         
      1352   0.15972519    -373.4701      -373.31038      247.13757      71.232796      1000         
      1354   0.10642119    -373.4046      -373.29818      164.66203     -1415.8162      1000         
      1356   0.1207605     -373.41423     -373.29347      186.84878     -830.49111      1000         
      1358   0.15034463    -373.43823     -373.28788      232.62334      1483.8511      1000         
      1360   0.11186353    -373.38748     -373.27562      173.08278      2835.3981      1000         
      1362   0.18123481    -373.45493     -373.2737       280.41871      1058.6642      1000         
      1364   0.16293374    -373.42478     -373.26184      252.10206     -1679.4568      1000         
      1366   0.14833696    -373.40199     -373.25366      229.51693     -2500.4406      1000         
      1368   0.20562998    -373.4567      -373.25107      318.16456     -791.56146      1000         
      1370   0.15327854    -373.39219     -373.23891      237.16289      1421.4187      1000         
      1372   0.18565723    -373.42244     -373.23678      287.26136      973.32617      1000         
      1374   0.20512279    -373.4369      -373.23178      317.37979     -1318.781       1000         
      1376   0.15576766    -373.37899     -373.22322      241.01422     -2231.9         1000         
      1378   0.21641337    -373.44062     -373.22421      334.84934     -525.12316      1000         
      1380   0.19726703    -373.41633     -373.21906      305.22483      2409.4816      1000         
      1382   0.17587359    -373.39061     -373.21474      272.12347      3063.087       1000         
      1384   0.2287799     -373.44668     -373.2179       353.98367      581.82317      1000         
      1386   0.17128579    -373.38302     -373.21174      265.02491     -1767.8378      1000         
      1388   0.20606884    -373.41979     -373.21372      318.84359     -1702.8252      1000         
      1390   0.23521399    -373.45225     -373.21704      363.93893      458.89671      1000         
      1392   0.16854466    -373.38071     -373.21217      260.78365      1788.0167      1000         
      1394   0.21375093    -373.43347     -373.21972      330.72983      33.823361      1000         
      1396   0.17493547    -373.39379     -373.21886      270.67194     -2369.6561      1000         
      1398   0.16546594    -373.38531     -373.21984      256.02005     -2532.3358      1000         
      1400   0.23512922    -373.4637      -373.22857      363.80776     -104.28703      1000         
      1402   0.18243589    -373.41        -373.22756      282.27709      2568.9223      1000         
      1404   0.1990039     -373.43371     -373.23471      307.91223      2218.4861      1000         
      1406   0.19018267    -373.43058     -373.24039      294.26343     -245.51994      1000         
      1408   0.12852256    -373.36906     -373.24054      198.85875     -1557.865       1000         
      1410   0.18160936    -373.43097     -373.24936      280.99824     -457.47092      1000         
[...]
     49274   0.1363139     -373.43428     -373.29797      210.91405      1201.0679      1000         
     49276   0.15317919    -373.45547     -373.30229      237.00915     -577.37348      1000         
     49278   0.09492624    -373.39522     -373.30029      146.87627     -1462.5706      1000         
     49280   0.12258334    -373.42737     -373.30479      189.6692      -201.68432      1000         
     49282   0.12534575    -373.43288     -373.30753      193.94339      2140.6377      1000         
     49284   0.10727778    -373.41411     -373.30684      165.98741      2763.4411      1000         
     49286   0.15706317    -373.4713      -373.31424      243.01871      623.38591      1000         
     49288   0.11216243    -373.42597     -373.31381      173.54526     -1679.7888      1000         
     49290   0.10782974    -373.4247      -373.31687      166.84144     -1975.2901      1000         
     49292   0.12369224    -373.44622     -373.32253      191.38496     -353.56711      1000         
     49294   0.076210471   -373.39699     -373.32078      117.91797      964.18104      1000         
     49296   0.11757622    -373.44478     -373.32721      181.92185     -30.977086      1000         
     49298   0.11086112    -373.44012     -373.32926      171.53178     -1739.0775      1000         
     49300   0.091434845   -373.42171     -373.33028      141.47415     -1749.3542      1000         
     49302   0.12710501    -373.46409     -373.33699      196.66543      303.7532       1000         
     49304   0.084622417   -373.42171     -373.33708      130.9335       2587.4212      1000         
     49306   0.088859956   -373.42927     -373.34041      137.49011      2446.8148      1000         
     49308   0.1069811     -373.45194     -373.34496      165.52836      259.77979      1000         
     49310   0.074402431   -373.419       -373.3446       115.12045     -1300.985       1000         
     49312   0.10703886    -373.45697     -373.34993      165.61774     -914.46149      1000         
     49314   0.092564574   -373.4451      -373.35253      143.22214      595.05331      1000         
     49316   0.06471999    -373.41732     -373.3526       100.13913      833.84504      1000         
     49318   0.093852381   -373.45196     -373.35811      145.21472     -893.24491      1000         
     49320   0.063429059   -373.42086     -373.35743      98.141711     -2299.6238      1000         
     49322   0.08125585    -373.44139     -373.36013      125.72452     -1668.3248      1000         
     49324   0.10464688    -373.46932     -373.36468      161.9167       618.81345      1000         
     49326   0.067080714   -373.43049     -373.36341      103.7918       2270.3023      1000         
     49328   0.087906105   -373.45628     -373.36838      136.01424      1476.8165      1000         
     49330   0.06415716    -373.43285     -373.3687       99.268278     -296.42823      1000         
     49332   0.051297035   -373.4202      -373.3689       79.370227     -867.59101      1000         
     49334   0.088288831   -373.46161     -373.37333      136.60642      219.46136      1000         
     49336   0.064910033   -373.43718     -373.37227      100.43317      1451.102       1000         
     49338   0.078556241   -373.45357     -373.37502      121.54751      736.97438      1000         
     49340   0.080476762   -373.45763     -373.37715      124.51906     -1296.2446      1000         
     49342   0.045685405   -373.4215      -373.37581      70.687534     -2285.6358      1000         
     49344   0.072568774   -373.45172     -373.37915      112.28329     -1222.262       1000         
     49346   0.065570112   -373.44508     -373.37951      101.45449      849.43218      1000         
     49348   0.059947888   -373.4393      -373.37935      92.755409      1537.6747      1000         
     49350   0.085837224   -373.46868     -373.38285      132.81313      246.20028      1000         
     49352   0.05007192    -373.43108     -373.381        77.474647     -962.96154      1000         
     49354   0.057316948   -373.43986     -373.38255      88.684641     -548.12818      1000         
     49356   0.068362084   -373.45271     -373.38435      105.77442      1125.0745      1000         
     49358   0.048644161   -373.43089     -373.38224      75.265522      1979.8841      1000         
     49360   0.08442449    -373.47016     -373.38574      130.62725      631.10281      1000         
     49362   0.067142656   -373.45182     -373.38467      103.88764     -1317.2852      1000         
     49364   0.052160132   -373.43645     -373.38429      80.705669     -1791.574       1000         
     49366   0.069403515   -373.45626     -373.38685      107.38579     -461.92026      1000         
     49368   0.038396693   -373.42267     -373.38428      59.409949      1036.5855      1000         
     49370   0.060573325   -373.44665     -373.38608      93.723128      652.67689      1000         
     49372   0.074647346   -373.46117     -373.38653      115.4994      -957.59757      1000         
     49374   0.05478422    -373.43929     -373.38451      84.765834     -1579.7635      1000         
     49376   0.078889073   -373.46563     -373.38674      122.06249     -330.73226      1000         
     49378   0.056959437   -373.44221     -373.38525      88.131476      1655.7695      1000         
     49380   0.045306498   -373.42966     -373.38435      70.101264      2040.6061      1000         
     49382   0.071468621   -373.45766     -373.38619      110.58106      414.44743      1000         
     49384   0.050702268   -373.4341      -373.3834       78.449963     -1100.3306      1000         
     49386   0.070892268   -373.45517     -373.38428      109.68929     -945.01816      1000         
     49388   0.076820043   -373.46116     -373.38434      118.86114      509.60988      1000         
     49390   0.045474471   -373.42662     -373.38114      70.361164      1184.3998      1000         
     49392   0.069846324   -373.453       -373.38316      108.07093     -183.14585      1000         
     49394   0.055692705   -373.43629     -373.3806       86.171503     -1901.3051      1000         
     49396   0.059787627   -373.43929     -373.3795       92.507442     -1946.804       1000         
     49398   0.091913887   -373.47249     -373.38057      142.21535     -120.70156      1000         
     49400   0.061732173   -373.43813     -373.3764       95.516175      1755.3155      1000         
     49402   0.069287975   -373.44611     -373.37682      107.20702      1552.0225      1000         
     49404   0.064221138   -373.43949     -373.37526      99.367269     -38.261271      1000         
     49406   0.044481924   -373.41667     -373.37219      68.825428     -802.49224      1000         
     49408   0.086592936   -373.45991     -373.37332      133.98242      121.45597      1000         
     49410   0.08254826    -373.4522      -373.36965      127.72423      1576.6429      1000         
     49412   0.080235056   -373.44746     -373.36722      124.14508      1285.2819      1000         
     49414   0.092894531   -373.45933     -373.36643      143.73267     -865.33126      1000         
     49416   0.052957522   -373.41439     -373.36143      81.939443     -2467.6797      1000         
     49418   0.07275241    -373.43395     -373.3612       112.56743     -1928.4243      1000         
     49420   0.089514371   -373.44864     -373.35912      138.50266      198.92764      1000         
     49422   0.076495816   -373.4305      -373.354        118.35948      1509.3743      1000         
     49424   0.11275084    -373.4666      -373.35385      174.45569      591.69318      1000         
     49426   0.082407669   -373.43021     -373.34781      127.50669     -768.65112      1000         
     49428   0.073529848   -373.41833     -373.3448       113.77033     -575.22589      1000         
     49430   0.1067314     -373.45067     -373.34394      165.14202      1204.0059      1000         
     49432   0.086106688   -373.42313     -373.33703      133.23007      2528.4834      1000         
     49434   0.12215976    -373.45812     -373.33596      189.0138       1274.0986      1000         
     49436   0.11877722    -373.44956     -373.33078      183.78011     -1320.2903      1000         
     49438   0.082094788   -373.40696     -373.32487      127.02258     -2526.9529      1000         
     49440   0.11404516    -373.43854     -373.32449      176.45836     -1384.0988      1000         
     49442   0.095776331   -373.41425     -373.31848      148.19159      702.57063      1000         
     49444   0.1094146     -373.42457     -373.31515      169.29363      995.32865      1000         
     49446   0.15214489    -373.4654      -373.31325      235.40881     -673.00885      1000         
     49448   0.11424622    -373.41963     -373.30539      176.76944     -1662.4743      1000         
     49450   0.13547628    -373.43942     -373.30395      209.61803     -478.96348      1000         
     49452   0.13273199    -373.43327     -373.30054      205.37188      1998.4461      1000         
     49454   0.09806705    -373.39229     -373.29422      151.73594      2943.8206      1000         
     49456   0.15102741    -373.44669     -373.29566      233.67978      968.85267      1000         
     49458   0.12850281    -373.41783     -373.28933      198.8282      -1467.9617      1000         
     49460   0.13413558    -373.42083     -373.28669      207.5436      -1902.0411      1000         
     49462   0.17111379    -373.45812     -373.287        264.75877     -208.59466      1000         
     49464   0.11998143    -373.39999     -373.28001      185.64335      1359.9526      1000         
     49466   0.14844369    -373.42989     -373.28145      229.68208      364.25642      1000         
     49468   0.14919332    -373.4283      -373.2791       230.84195     -1810.7405      1000         
     49470   0.12539861    -373.40059     -373.27519      194.02518     -2322.132       1000         
     49472   0.18104431    -373.45907     -373.27803      280.12395     -432.98574      1000         
     49474   0.15103535    -373.42556     -373.27452      233.69206      2131.3679      1000         
     49476   0.13501529    -373.40848     -373.27346      208.90475      2357.1608      1000         
     49478   0.15595637    -373.43184     -373.27588      241.3062       205.61878      1000         
     49480   0.11201318    -373.38379     -373.27178      173.31434     -1353.8261      1000         
     49482   0.15896551    -373.43355     -373.27458      245.96214     -705.01558      1000         
     49484   0.17992206    -373.45603     -373.27611      278.38752      1325.4555      1000         
     49486   0.14163885    -373.41468     -373.27305      219.15317      1941.8048      1000         
     49488   0.17222478    -373.45079     -373.27856      266.47777     -163.45156      1000         
     49490   0.12135105    -373.39755     -373.2762       187.76251     -2394.6373      1000         
     49492   0.1210401     -373.3983      -373.27726      187.28139     -2395.092       1000         
     49494   0.16863589    -373.45079     -373.28215      260.9248      -240.13377      1000         
     49496   0.13326399    -373.41278     -373.27951      206.19502      1698.549       1000         
     49498   0.16418872    -373.44892     -373.28473      254.04385      1018.7837      1000         
     49500   0.14563646    -373.4317      -373.28606      225.33853     -849.76079      1000         
     49502   0.10492788    -373.39011     -373.28518      162.35148     -1207.1197      1000         
     49504   0.15197424    -373.44294     -373.29096      235.14478      522.02775      1000         
     49506   0.13150138    -373.42233     -373.29083      203.46779      2589.8163      1000         
     49508   0.13817683    -373.43124     -373.29307      213.7965       2184.6048      1000         
     49510   0.16027626    -373.45846     -373.29818      247.99022     -462.28158      1000         
     49512   0.10339592    -373.39994     -373.29654      159.98114     -2329.135       1000         
     49514   0.12630866    -373.42728     -373.30097      195.43326     -1846.3078      1000         
     49516   0.12754789    -373.43134     -373.30379      197.35068      165.59183      1000         
     49518   0.10360955    -373.40622     -373.30261      160.31167      1030.4715      1000         
     49520   0.15469977    -373.46409     -373.30939      239.3619      -417.26894      1000         
     49522   0.11977981    -373.42849     -373.30872      185.33139     -1785.7012      1000         
     49524   0.11561391    -373.42649     -373.31088      178.88562     -1081.7487      1000         
     49526   0.13534337    -373.45137     -373.31603      209.41237      1358.8317      1000         
     49528   0.082810832   -373.39625     -373.31344      128.13049      3096.7592      1000         
     49530   0.11922252    -373.43792     -373.3187       184.46912      1917.5275      1000         
     49532   0.11926598    -373.43914     -373.31987      184.53636     -623.61727      1000         
     49534   0.099884691   -373.41947     -373.31958      154.54832     -1794.3591      1000         
     49536   0.13965396    -373.46464     -373.32499      216.08201     -842.71115      1000         
     49538   0.10016613    -373.42424     -373.32408      154.98377      738.75025      1000         
     49540   0.095986338   -373.42178     -373.32579      148.51653      428.21197      1000         
     49542   0.116442      -373.44577     -373.32932      180.1669      -1473.6853      1000         
     49544   0.082303663   -373.4097      -373.3274       127.34577     -2310.3414      1000         
     49546   0.12003712    -373.45132     -373.33128      185.72952     -891.46373      1000         
     49548   0.11784701    -373.45089     -373.33305      182.34083      1706.8121      1000         
     49550   0.082711124   -373.41403     -373.33132      127.97622      2740.271       1000         
     49551   0.10082804    -373.43506     -373.33424      156.00794      2163.8477      1000         
Loop time of 91.564 on 1 procs for 49550 steps with 6 atoms

Performance: 46.756 ns/day, 0.513 hours/ns, 541.152 timesteps/s, 3.247 katom-step/s
154.8% CPU use with 1 MPI tasks x 1 OpenMP threads

MPI task timing breakdown:
Section |  min time  |  avg time  |  max time  |%varavg| %total
---------------------------------------------------------------
Pair    | 89.074     | 89.074     | 89.074     |   0.0 | 97.28
Neigh   | 0.043875   | 0.043875   | 0.043875   |   0.0 |  0.05
Comm    | 0.10176    | 0.10176    | 0.10176    |   0.0 |  0.11
Output  | 1.295      | 1.295      | 1.295      |   0.0 |  1.41
Modify  | 0.98939    | 0.98939    | 0.98939    |   0.0 |  1.08
Other   |            | 0.05981    |            |       |  0.07

Nlocal:              6 ave           6 max           6 min
Histogram: 1 0 0 0 0 0 0 0 0 0
Nghost:            156 ave         156 max         156 min
Histogram: 1 0 0 0 0 0 0 0 0 0
Neighs:              0 ave           0 max           0 min
Histogram: 1 0 0 0 0 0 0 0 0 0
FullNghs:           30 ave          30 max          30 min
Histogram: 1 0 0 0 0 0 0 0 0 0

Total # of neighbors = 30
Ave neighs/atom = 5
Neighbor list builds = 4955
Dangerous builds not checked

# Write restart files every 100 steps for the final 1000 steps
restart 5 ./restart_NVT/restart_NVT150.*.bin
run 50
Generated 0 of 1 mixed pair_coeff terms from geometric mixing rule
Per MPI rank memory allocation (min/avg/max) = 3.81 | 3.81 | 3.81 Mbytes
   Step         KinEng         PotEng         TotEng          Temp          Press          Volume    
     49551   0.10082804    -373.43506     -373.33424      156.00794      2163.8477      1000         
     49552   0.1136518     -373.44989     -373.33624      175.84972      1131.1131      1000         
     49554   0.079935729   -373.4141      -373.33416      123.68194     -792.12234      1000         
     49556   0.096066765   -373.43178     -373.33571      148.64097     -1010.3757      1000         
     49558   0.12888205    -373.46825     -373.33937      199.41499      397.25578      1000         
     49560   0.088068042   -373.42455     -373.33648      136.2648       1345.6898      1000         
     49562   0.11044867    -373.45119     -373.34074      170.89361      7.5134358      1000         
     49564   0.08585621    -373.42599     -373.34013      132.84251     -2016.9067      1000         
     49566   0.064868818   -373.40398     -373.33911      100.3694      -2338.104       1000         
     49568   0.1132053     -373.4564      -373.3432       175.15887     -527.30678      1000         
     49570   0.094699266   -373.43593     -373.34123      146.52508      1683.9808      1000         
     49572   0.10735682    -373.45039     -373.34303      166.1097       1732.4016      1000         
     49574   0.11135957    -373.45624     -373.34488      172.30302     -25.651313      1000         
     49576   0.06283377    -373.40506     -373.34222      97.22064      -1059.515       1000         
     49578   0.093246839   -373.43862     -373.34537      144.27779     -205.75627      1000         
     49580   0.092762556   -373.43822     -373.34546      143.52847      1580.8631      1000         
     49582   0.085668582   -373.42982     -373.34415      132.5522       1807.8682      1000         
     49584   0.12303467    -373.47113     -373.3481       190.36752     -208.96396      1000         
     49586   0.077330666   -373.42252     -373.34519      119.65121     -2052.1152      1000         
     49588   0.079487737   -373.42582     -373.34633      122.98878     -1876.5003      1000         
     49590   0.097386395   -373.44597     -373.34859      150.68279      37.522015      1000         
     49592   0.069673338   -373.41487     -373.34519      107.80328      1413.0608      1000         
     49594   0.11749502    -373.46692     -373.34942      181.79621      438.61325      1000         
     49596   0.099926982   -373.44784     -373.34792      154.61375     -1239.1568      1000         
     49598   0.076420209   -373.42328     -373.34686      118.24249     -1353.1642      1000         
     49600   0.10270068    -373.45296     -373.35026      158.90541      434.32197      1000         
     49601   0.087848029   -373.43727     -373.34943      135.92439      1551.1335      1000         
Loop time of 0.0910769 on 1 procs for 50 steps with 6 atoms

Performance: 47.432 ns/day, 0.506 hours/ns, 548.987 timesteps/s, 3.294 katom-step/s
160.1% CPU use with 1 MPI tasks x 1 OpenMP threads

MPI task timing breakdown:
Section |  min time  |  avg time  |  max time  |%varavg| %total
---------------------------------------------------------------
Pair    | 0.088268   | 0.088268   | 0.088268   |   0.0 | 96.92
Neigh   | 8.1933e-05 | 8.1933e-05 | 8.1933e-05 |   0.0 |  0.09
Comm    | 9.8271e-05 | 9.8271e-05 | 9.8271e-05 |   0.0 |  0.11
Output  | 0.0017123  | 0.0017123  | 0.0017123  |   0.0 |  1.88
Modify  | 0.00083359 | 0.00083359 | 0.00083359 |   0.0 |  0.92
Other   |            | 8.238e-05  |            |       |  0.09

Nlocal:              6 ave           6 max           6 min
Histogram: 1 0 0 0 0 0 0 0 0 0
Nghost:            156 ave         156 max         156 min
Histogram: 1 0 0 0 0 0 0 0 0 0
Neighs:              0 ave           0 max           0 min
Histogram: 1 0 0 0 0 0 0 0 0 0
FullNghs:           30 ave          30 max          30 min
Histogram: 1 0 0 0 0 0 0 0 0 0

Total # of neighbors = 30
Ave neighs/atom = 5
Neighbor list builds = 10
Dangerous builds not checked

write_data out.lmp
System init for write_data ...
Generated 0 of 1 mixed pair_coeff terms from geometric mixing rule
Total wall time: 0:01:33
