LAMMPS data file via write_data, version 2 Aug 2023, timestep = 49601, units = metal

6 atoms
2 atom types

0 10 xlo xhi
0 10 ylo yhi
0 10 zlo zhi

Masses

1 12.0107
2 1.00794

Atoms # atomic

5 2 4.422843788862178 4.8874015981355186 3.598047536763765 0 0 0
1 1 5.138702553573975 4.776417531103745 4.392061850830212 0 0 0
6 2 6.049178106756336 4.225658536332994 4.192468343327085 0 0 0
3 2 3.943204532170791 5.771123300404632 5.782063959165475 0 0 0
2 1 4.86151701291928 5.225953038500753 5.611164384550715 0 0 0
4 2 5.58453854168851 5.087166023269046 6.390745443986318 0 0 0

Velocities

5 6.452813654462573 6.31684711584682 9.66970756378561
1 -3.180233729188215 -2.7340200499793377 -0.3786787528543318
6 -17.406111007577184 -9.746223038344752 3.282041300762645
3 18.909342259944637 9.576746502154876 -3.821792235085933
2 2.9383877765245483 2.276848457494711 0.8658747586490998
4 -5.074187669634741 -0.6996744411422416 -14.935426267335995
