LAMMPS data file via write_data, version 2 Aug 2023, timestep = 69570, units = metal

6 atoms
2 atom types

0 10 xlo xhi
0 10 ylo yhi
0 10 zlo zhi

Masses

1 12.0107
2 1.00794

Atoms # atomic

6 2 5.094819783361229 5.511073863887779 3.565937540673474 0 0 0
2 1 4.707823446329464 5.114336288158418 5.58898754835175 0 0 0
4 2 3.999071192249389 5.896534507272047 5.697070286201015 0 0 0
5 2 6.025153485294983 4.127526118776489 4.285848454314337 0 0 0
1 1 5.289099042027109 4.884997485937291 4.4141954017314315 0 0 0
3 2 4.920008776168974 4.472401685436007 6.414984793426663 0 0 0

Velocities

6 5.553259450013082 -3.3100413896535157 -6.861256959197146
2 2.3141553364263787 2.990385417904689 2.6508573577170718
4 8.45638931278286 14.557127758808685 9.723126067703298
5 -8.649927944707246 -15.903148851013638 -12.81413903308488
1 -2.2443579981356416 -2.7191618904885098 -2.2831281121672067
3 -6.191431922920696 1.4241395293600163 5.570376508777172
