LAMMPS data file via write_data, version 2 Aug 2023, timestep = 133000, units = metal

6 atoms
2 atom types

0 10 xlo xhi
0 10 ylo yhi
0 10 zlo zhi

Masses

1 12.0107
2 1.00794

Atoms # atomic

6 2 3.9403156430396518 4.608040682195489 4.042265330746282 0 0 0
2 1 5.627498440723703 5.189090030318375 4.993898969554551 0 0 0
4 2 6.250439337629695 5.187430369381524 4.087979884437257 0 0 0
5 2 3.7285104588875684 4.530789200513853 5.860842383585792 0 0 0
1 1 4.362864690004709 4.824545455477302 5.016102289131556 0 0 0
3 2 6.1979496687685405 5.510855492938869 5.891505922754896 0 0 0

Velocities

6 -4.052446932149736 10.922525176476686 16.447671739275865
2 -5.180563961859643 -2.764634823471085 -1.3366935197389687
4 18.000121475096016 -30.26883132776733 -15.492227875717427
5 -7.784690297088934 67.33521787833834 -9.25414555452953
1 2.9253072119939514 0.30412987370002037 6.94882569815976
3 20.710849757764265 -18.66932246556372 -58.57594953366151
