ITEM: TIMESTEP
49600
ITEM: NUMBER OF ATOMS
6
ITEM: BOX BOUNDS pp pp pp
0.0000000000000000e+00 1.0000000000000000e+01
0.0000000000000000e+00 1.0000000000000000e+01
0.0000000000000000e+00 1.0000000000000000e+01
ITEM: ATOMS id type x y z vx vy vz
6 2 4.53764 4.48252 3.60001 -13.6117 2.50733 -4.48205
1 1 5.20791 4.84911 4.38481 -2.384 -0.912574 1.39309
5 2 6.23823 5.0066 4.09533 14.7274 -18.4335 -10.1137
4 2 3.7586 5.00795 5.89339 -17.5474 14.442 4.97483
2 1 4.79443 5.1484 5.61568 2.28666 0.909895 -0.527255
3 2 5.44006 5.53218 6.40719 17.5918 1.51614 -0.696409
ITEM: TIMESTEP
49700
ITEM: NUMBER OF ATOMS
6
ITEM: BOX BOUNDS pp pp pp
0.0000000000000000e+00 1.0000000000000000e+01
0.0000000000000000e+00 1.0000000000000000e+01
0.0000000000000000e+00 1.0000000000000000e+01
ITEM: ATOMS id type x y z vx vy vz
6 2 4.27667 5.0032 3.60269 5.83965 -0.590551 -2.80504
1 1 4.9179 4.66029 4.43681 -4.61205 -0.816209 0.638363
5 2 5.47674 3.71959 4.22027 -17.0142 6.04209 13.0725
4 2 4.51786 6.27939 5.77738 16.753 -4.75686 -12.5162
2 1 5.08028 5.34216 5.56596 4.26516 0.534607 -0.621162
3 2 5.75284 4.96826 6.36853 -1.44492 2.6609 2.04376
ITEM: TIMESTEP
49800
ITEM: NUMBER OF ATOMS
6
ITEM: BOX BOUNDS pp pp pp
0.0000000000000000e+00 1.0000000000000000e+01
0.0000000000000000e+00 1.0000000000000000e+01
0.0000000000000000e+00 1.0000000000000000e+01
ITEM: ATOMS id type x y z vx vy vz
6 2 4.41332 4.93932 3.60895 10.9519 -2.2871 4.75955
1 1 4.5906 4.63683 4.6131 -3.71644 1.51311 3.12434
5 2 4.08348 3.75542 4.94704 -11.4541 -0.761307 8.32237
4 2 5.9009 6.2593 5.0648 13.2957 -3.15382 -3.96726
2 1 5.40941 5.36116 5.38616 2.9226 -1.57742 -3.51908
3 2 5.60469 5.06949 6.38979 -3.33417 6.96857 -4.41096
ITEM: TIMESTEP
49900
ITEM: NUMBER OF ATOMS
6
ITEM: BOX BOUNDS pp pp pp
0.0000000000000000e+00 1.0000000000000000e+01
0.0000000000000000e+00 1.0000000000000000e+01
0.0000000000000000e+00 1.0000000000000000e+01
ITEM: ATOMS id type x y z vx vy vz
6 2 4.16717 4.2547 3.86405 -8.30312 -11.0886 0.637098
1 1 4.39196 4.78708 4.82934 0.214741 3.07224 3.22137
5 2 3.53477 5.03181 5.47657 -4.06886 11.9562 2.12551
4 2 6.4738 5.00056 4.52363 4.61713 -14.9933 -3.4344
2 1 5.60661 5.21043 5.17146 0.397051 -2.84506 -3.11665
3 2 5.84374 5.74214 6.1281 0.464682 11.4186 -0.576041
ITEM: TIMESTEP
50000
ITEM: NUMBER OF ATOMS
6
ITEM: BOX BOUNDS pp pp pp
0.0000000000000000e+00 1.0000000000000000e+01
0.0000000000000000e+00 1.0000000000000000e+01
0.0000000000000000e+00 1.0000000000000000e+01
ITEM: ATOMS id type x y z vx vy vz
6 2 3.76364 4.10306 5.13009 -0.158719 17.088 8.22267
1 1 4.33736 5.00944 5.06881 0.0719148 1.1119 3.87306
5 2 3.75337 5.94003 5.08473 13.5832 -7.71381 -10.1216
4 2 6.22708 4.05118 4.89396 -16.2803 4.5069 10.993
2 1 5.66627 4.98983 4.93342 0.112282 -0.956282 -3.55583
3 2 6.21507 5.91404 4.86657 0.660897 -15.7354 -12.8742
ITEM: TIMESTEP
50100
ITEM: NUMBER OF ATOMS
6
ITEM: BOX BOUNDS pp pp pp
0.0000000000000000e+00 1.0000000000000000e+01
0.0000000000000000e+00 1.0000000000000000e+01
0.0000000000000000e+00 1.0000000000000000e+01
ITEM: ATOMS id type x y z vx vy vz
4 2 6.10998 3.9668 5.27602 15.8137 -9.10162 4.12579
2 1 5.54726 4.71622 4.73922 -4.23582 -2.6199 0.599356
3 2 5.87033 4.94096 3.72141 -11.0101 -9.58257 -12.7096
6 2 4.14263 5.04978 6.27925 11.9977 2.00856 9.59524
1 1 4.45211 5.28451 5.26008 3.7188 3.11433 0.2653
5 2 3.88711 6.03334 4.73353 -10.6404 10.784 -11.3147
ITEM: TIMESTEP
50200
ITEM: NUMBER OF ATOMS
6
ITEM: BOX BOUNDS pp pp pp
0.0000000000000000e+00 1.0000000000000000e+01
0.0000000000000000e+00 1.0000000000000000e+01
0.0000000000000000e+00 1.0000000000000000e+01
ITEM: ATOMS id type x y z vx vy vz
4 2 6.26006 4.07465 5.02115 -12.2985 6.22046 -4.11912
2 1 5.26394 4.46582 4.70505 -2.32787 -1.385 -0.530024
3 2 4.76083 3.89804 3.89331 -12.1752 -9.2199 14.4909
6 2 5.24738 6.10133 6.10817 9.90745 8.81968 -9.812
1 1 4.73466 5.5355 5.29868 2.43923 1.12465 -0.095488
5 2 3.75089 5.90984 4.93484 13.2392 -2.71789 6.89393
ITEM: TIMESTEP
50300
ITEM: NUMBER OF ATOMS
6
ITEM: BOX BOUNDS pp pp pp
0.0000000000000000e+00 1.0000000000000000e+01
0.0000000000000000e+00 1.0000000000000000e+01
0.0000000000000000e+00 1.0000000000000000e+01
ITEM: ATOMS id type x y z vx vy vz
4 2 5.73431 3.9292 4.17524 -5.77597 1.27876 -8.60956
2 1 4.99202 4.35139 4.82128 -4.27106 -0.82788 1.68226
3 2 4.17611 3.7408 5.12789 5.38451 3.67735 11.9635
6 2 5.82176 6.25854 4.87845 -7.60623 -1.31945 -11.4606
1 1 5.00865 5.64537 5.18043 4.2948 0.190532 -1.50965
5 2 4.2622 6.10964 5.79992 7.71477 3.95803 6.04979
ITEM: TIMESTEP
50400
ITEM: NUMBER OF ATOMS
6
ITEM: BOX BOUNDS pp pp pp
0.0000000000000000e+00 1.0000000000000000e+01
0.0000000000000000e+00 1.0000000000000000e+01
0.0000000000000000e+00 1.0000000000000000e+01
ITEM: ATOMS id type x y z vx vy vz
4 2 4.31996 3.96189 4.06203 -22.3059 -4.47715 4.49122
2 1 4.70963 4.40069 4.99415 -1.48698 1.9847 -0.192153
3 2 4.5531 3.82736 5.94362 1.43118 0.529842 13.7062
6 2 5.46182 6.18885 4.06676 -6.12361 -2.54871 -14.9643
1 1 5.29123 5.59805 5.00464 2.1441 -1.38613 -0.250831
5 2 5.6573 6.03646 5.94388 19.168 -0.636636 2.04544
ITEM: TIMESTEP
50500
ITEM: NUMBER OF ATOMS
6
ITEM: BOX BOUNDS pp pp pp
0.0000000000000000e+00 1.0000000000000000e+01
0.0000000000000000e+00 1.0000000000000000e+01
0.0000000000000000e+00 1.0000000000000000e+01
ITEM: ATOMS id type x y z vx vy vz
4 2 3.47094 4.75171 5.03301 13.3318 15.5936 13.3995
2 1 4.53628 4.60113 5.26356 -0.86702 -0.132761 3.43259
3 2 4.76501 3.75483 5.88913 -8.46944 9.60983 -3.42252
6 2 5.21009 6.22926 4.0929 7.08518 -5.63071 6.47888
1 1 5.46654 5.40197 4.73692 1.09765 -0.437662 -3.49416
5 2 6.52283 5.22689 4.98117 -14.6957 -12.7755 -15.7221
ITEM: TIMESTEP
50600
ITEM: NUMBER OF ATOMS
6
ITEM: BOX BOUNDS pp pp pp
0.0000000000000000e+00 1.0000000000000000e+01
0.0000000000000000e+00 1.0000000000000000e+01
0.0000000000000000e+00 1.0000000000000000e+01
ITEM: ATOMS id type x y z vx vy vz
4 2 4.08892 5.64281 6.07105 3.42459 19.3255 13.537
2 1 4.57938 4.87392 5.50403 1.82536 2.02511 1.66925
3 2 4.31265 3.83879 5.71582 -5.58407 -4.35734 -2.16544
6 2 5.6823 6.15365 4.26899 14.1017 1.39911 -2.11317
1 1 5.42156 5.12588 4.49895 -2.40357 -2.06123 -1.04161
5 2 5.90738 4.36676 3.91051 -5.05218 -15.937 -16.7374
ITEM: TIMESTEP
50700
ITEM: NUMBER OF ATOMS
6
ITEM: BOX BOUNDS pp pp pp
0.0000000000000000e+00 1.0000000000000000e+01
0.0000000000000000e+00 1.0000000000000000e+01
0.0000000000000000e+00 1.0000000000000000e+01
ITEM: ATOMS id type x y z vx vy vz
4 2 5.36168 5.5965 6.39552 -3.75362 -4.32156 -4.39954
2 1 4.74534 5.10351 5.60555 4.00182 2.11792 2.55117
3 2 3.70724 4.80443 5.87618 -1.55881 17.4122 0.097474
6 2 6.28991 5.18721 4.10149 2.08137 -15.9176 5.87193
1 1 5.25513 4.89503 4.3973 -3.53082 -2.49407 -2.96924
5 2 4.63799 4.4289 3.59472 -2.3814 7.30918 3.41186
ITEM: TIMESTEP
50800
ITEM: NUMBER OF ATOMS
6
ITEM: BOX BOUNDS pp pp pp
0.0000000000000000e+00 1.0000000000000000e+01
0.0000000000000000e+00 1.0000000000000000e+01
0.0000000000000000e+00 1.0000000000000000e+01
ITEM: ATOMS id type x y z vx vy vz
4 2 5.69516 5.01711 6.36348 1.41841 -5.61571 -0.642975
2 1 5.02512 5.32334 5.58155 1.59992 3.34266 -0.995307
3 2 4.3671 6.11501 5.83491 19.9844 5.89313 0.84293
6 2 5.63994 3.87306 4.20839 -16.8091 -6.44016 -2.00762
1 1 4.97391 4.6765 4.41525 -2.01465 -3.50651 0.924076
5 2 4.31178 4.99626 3.63323 0.34817 8.11517 2.65645
ITEM: TIMESTEP
50900
ITEM: NUMBER OF ATOMS
6
ITEM: BOX BOUNDS pp pp pp
0.0000000000000000e+00 1.0000000000000000e+01
0.0000000000000000e+00 1.0000000000000000e+01
0.0000000000000000e+00 1.0000000000000000e+01
ITEM: ATOMS id type x y z vx vy vz
4 2 5.60466 5.03017 6.44396 -1.33486 3.46392 11.7409
2 1 5.35589 5.36044 5.42942 3.95518 -2.1363 -1.77083
3 2 5.72359 6.37549 5.12645 11.2889 4.66122 -14.967
6 2 4.24322 3.63879 4.86529 -12.012 -4.85221 7.39458
1 1 4.64688 4.63751 4.57149 -3.73995 2.6425 2.34771
5 2 4.39798 4.97961 3.55532 -0.506781 -9.30482 -11.0426
ITEM: TIMESTEP
51000
ITEM: NUMBER OF ATOMS
6
ITEM: BOX BOUNDS pp pp pp
0.0000000000000000e+00 1.0000000000000000e+01
0.0000000000000000e+00 1.0000000000000000e+01
0.0000000000000000e+00 1.0000000000000000e+01
ITEM: ATOMS id type x y z vx vy vz
4 2 5.68291 5.63616 6.22281 5.22827 4.21852 -21.8911
2 1 5.59125 5.23832 5.19757 2.17289 -1.38951 -1.43068
3 2 6.487 5.20867 4.59137 -5.31109 -12.8068 7.37383
6 2 3.5039 4.80466 5.38821 10.0794 14.2518 -3.35356
1 1 4.41224 4.76104 4.80326 -2.61957 1.00125 1.3945
5 2 4.28704 4.3577 3.78955 -4.67395 -1.03701 18.3019
ITEM: TIMESTEP
51100
ITEM: NUMBER OF ATOMS
6
ITEM: BOX BOUNDS pp pp pp
0.0000000000000000e+00 1.0000000000000000e+01
0.0000000000000000e+00 1.0000000000000000e+01
0.0000000000000000e+00 1.0000000000000000e+01
ITEM: ATOMS id type x y z vx vy vz
1 1 4.33174 4.96072 5.02581 1.03355 4.54695 3.91617
5 2 3.80519 4.02814 4.93857 -4.95813 -11.9651 6.40285
3 2 6.27306 4.15308 4.84873 6.60566 -6.08895 9.49476
6 2 3.73502 5.85979 5.1425 -7.10676 9.97171 -7.31375
4 2 6.21699 5.95928 5.05596 11.0587 9.22405 -13.2436
2 1 5.66593 5.03922 4.97554 -1.50346 -4.64276 -3.52513
ITEM: TIMESTEP
51200
ITEM: NUMBER OF ATOMS
6
ITEM: BOX BOUNDS pp pp pp
0.0000000000000000e+00 1.0000000000000000e+01
0.0000000000000000e+00 1.0000000000000000e+01
0.0000000000000000e+00 1.0000000000000000e+01
ITEM: ATOMS id type x y z vx vy vz
1 1 4.42376 5.23151 5.24038 2.62273 1.72188 3.78707
5 2 3.99439 4.88667 6.21431 0.159111 18.7241 -3.11587
3 2 6.14531 3.96827 5.2941 -2.40912 2.39282 6.46488
6 2 3.87189 6.04939 4.7206 0.834697 -2.1144 -2.53915
4 2 6.01311 5.1066 3.79419 -8.01514 -16.8789 -1.2605
2 1 5.57437 4.76754 4.75782 -1.83133 -1.90011 -3.74926
ITEM: TIMESTEP
51300
ITEM: NUMBER OF ATOMS
6
ITEM: BOX BOUNDS pp pp pp
0.0000000000000000e+00 1.0000000000000000e+01
0.0000000000000000e+00 1.0000000000000000e+01
0.0000000000000000e+00 1.0000000000000000e+01
ITEM: ATOMS id type x y z vx vy vz
1 1 4.67089 5.50283 5.29625 1.36657 1.77565 -0.752291
5 2 5.07177 5.97847 6.17405 14.6284 8.41051 -9.07135
3 2 6.24542 4.09706 5.06758 -6.25383 -0.770737 -9.03704
6 2 3.76959 5.9266 4.92719 8.56549 0.288718 10.4104
4 2 4.89876 4.0426 3.82505 -10.664 -10.6186 11.2228
2 1 5.33053 4.49339 4.70442 -1.89326 -1.5499 0.456488
ITEM: TIMESTEP
51400
ITEM: NUMBER OF ATOMS
6
ITEM: BOX BOUNDS pp pp pp
0.0000000000000000e+00 1.0000000000000000e+01
0.0000000000000000e+00 1.0000000000000000e+01
0.0000000000000000e+00 1.0000000000000000e+01
ITEM: ATOMS id type x y z vx vy vz
1 1 4.9735 5.63912 5.19811 2.60501 -1.15644 -0.306879
5 2 5.79886 6.34214 5.04978 8.6422 1.95693 -20.6202
3 2 5.91652 3.98707 4.24374 -3.13665 -12.241 -11.9026
6 2 4.06852 6.01737 5.7375 -2.76739 8.14204 10.6532
4 2 4.21675 3.63459 4.94258 -7.82719 -6.24249 15.1688
2 1 5.02665 4.36243 4.80426 -2.17794 1.86007 0.869219
ITEM: TIMESTEP
51500
ITEM: NUMBER OF ATOMS
6
ITEM: BOX BOUNDS pp pp pp
0.0000000000000000e+00 1.0000000000000000e+01
0.0000000000000000e+00 1.0000000000000000e+01
0.0000000000000000e+00 1.0000000000000000e+01
ITEM: ATOMS id type x y z vx vy vz
1 1 5.24694 5.62322 5.04553 2.51373 0.194412 -3.99022
5 2 5.51383 6.206 4.14226 -5.26614 -2.35241 12.107
3 2 4.51729 3.89635 4.00753 -12.731 15.353 10.8036
6 2 5.46371 6.07332 6.00599 14.3237 -11.214 -13.1416
4 2 4.5063 3.79437 5.85494 3.24524 8.25226 -7.96681
2 1 4.75318 4.37926 4.95373 -2.47779 -1.03687 3.83898
ITEM: TIMESTEP
51600
ITEM: NUMBER OF ATOMS
6
ITEM: BOX BOUNDS pp pp pp
0.0000000000000000e+00 1.0000000000000000e+01
0.0000000000000000e+00 1.0000000000000000e+01
0.0000000000000000e+00 1.0000000000000000e+01
ITEM: ATOMS id type x y z vx vy vz
1 1 5.46155 5.43814 4.78705 1.5823 -3.7077 -0.344475
5 2 5.19775 6.22946 4.11135 -8.09149 10.4823 -8.77915
3 2 3.51303 4.59112 4.87078 -11.8138 10.0484 12.7873
6 2 6.49724 5.4263 5.09979 9.94218 -9.5259 -17.1283
4 2 4.81942 3.76293 5.87686 6.4904 -5.00809 10.8718
2 1 4.53635 4.561 5.21656 -1.29087 3.20445 0.533161
ITEM: TIMESTEP
51700
ITEM: NUMBER OF ATOMS
6
ITEM: BOX BOUNDS pp pp pp
0.0000000000000000e+00 1.0000000000000000e+01
0.0000000000000000e+00 1.0000000000000000e+01
0.0000000000000000e+00 1.0000000000000000e+01
ITEM: ATOMS id type x y z vx vy vz
1 1 5.43811 5.18701 4.53186 -1.04241 -1.26348 -2.99426
5 2 5.63235 6.24719 4.25232 5.907 -9.71786 6.20705
3 2 3.92 5.57866 5.96596 6.15767 5.29468 7.56134
6 2 6.06319 4.40647 4.02209 -11.9749 -13.087 -6.5525
4 2 4.36995 3.75295 5.75298 -7.99874 9.94035 -3.00768
2 1 4.56332 4.81419 5.46885 1.70613 1.89874 2.64111
ITEM: TIMESTEP
51800
ITEM: NUMBER OF ATOMS
6
ITEM: BOX BOUNDS pp pp pp
0.0000000000000000e+00 1.0000000000000000e+01
0.0000000000000000e+00 1.0000000000000000e+01
0.0000000000000000e+00 1.0000000000000000e+01
ITEM: ATOMS id type x y z vx vy vz
1 1 5.28631 4.92795 4.39581 -1.4955 -1.40802 -1.2305
5 2 6.24696 5.38645 4.20902 2.43468 -17.5698 -3.52266
3 2 5.15687 5.60806 6.41 11.9073 -3.01838 -14.2278
6 2 4.82066 4.40477 3.59924 -7.23451 8.46462 10.3423
4 2 3.76296 4.61447 5.81195 -5.70556 17.176 1.33627
2 1 4.71495 5.07086 5.60181 1.37784 0.984025 1.74005
ITEM: TIMESTEP
51900
ITEM: NUMBER OF ATOMS
6
ITEM: BOX BOUNDS pp pp pp
0.0000000000000000e+00 1.0000000000000000e+01
0.0000000000000000e+00 1.0000000000000000e+01
0.0000000000000000e+00 1.0000000000000000e+01
ITEM: ATOMS id type x y z vx vy vz
1 1 5.03041 4.70714 4.40384 -5.0762 -0.501184 1.35193
5 2 5.8132 3.989 4.14889 0.377245 -16.9225 4.76151
3 2 5.69879 5.03744 6.40039 9.07249 -6.07984 11.5426
6 2 4.32064 4.93991 3.57972 -6.04959 4.95192 -11.7834
4 2 4.16248 5.99116 5.85332 1.07592 15.4168 -11.3134
2 1 4.9702 5.29639 5.5978 4.70057 0.722205 -0.781896
ITEM: TIMESTEP
52000
ITEM: NUMBER OF ATOMS
6
ITEM: BOX BOUNDS pp pp pp
0.0000000000000000e+00 1.0000000000000000e+01
0.0000000000000000e+00 1.0000000000000000e+01
0.0000000000000000e+00 1.0000000000000000e+01
ITEM: ATOMS id type x y z vx vy vz
1 1 4.69537 4.62088 4.5456 -5.09941 -1.67284 1.81337
5 2 4.4094 3.5647 4.70133 -4.5534 16.2849 6.75817
3 2 5.56519 4.9634 6.4247 -9.33033 6.7032 -9.36399
6 2 4.4418 5.04765 3.57293 8.71594 0.094206 9.00765
4 2 5.55776 6.44204 5.2872 9.68827 -16.408 -0.419129
2 1 5.30701 5.37759 5.45572 4.72005 1.11273 -2.31544
ITEM: TIMESTEP
52100
ITEM: NUMBER OF ATOMS
6
ITEM: BOX BOUNDS pp pp pp
0.0000000000000000e+00 1.0000000000000000e+01
0.0000000000000000e+00 1.0000000000000000e+01
0.0000000000000000e+00 1.0000000000000000e+01
ITEM: ATOMS id type x y z vx vy vz
1 1 4.44443 4.72868 4.74696 -1.21646 2.05468 2.5037
5 2 3.58094 4.6406 5.37862 -13.0273 11.5923 10.0711
6 2 4.34428 4.43649 3.71825 -1.91462 -6.10931 0.716659
3 2 5.66582 5.57102 6.28094 -2.50705 12.0768 -1.56329
4 2 6.4291 5.37732 4.64689 15.6415 -12.0855 -12.2114
2 1 5.55408 5.26915 5.25113 1.36814 -2.51408 -2.25303
ITEM: TIMESTEP
52200
ITEM: NUMBER OF ATOMS
6
ITEM: BOX BOUNDS pp pp pp
0.0000000000000000e+00 1.0000000000000000e+01
0.0000000000000000e+00 1.0000000000000000e+01
0.0000000000000000e+00 1.0000000000000000e+01
ITEM: ATOMS id type x y z vx vy vz
1 1 4.34346 4.92896 4.98768 0.297624 0.915139 3.62215
5 2 3.63496 5.76122 5.19159 8.50976 4.99934 -9.18177
6 2 3.87459 3.94515 4.73224 -9.87964 2.26856 8.07966
3 2 6.12487 6.05954 5.26671 8.69196 2.89317 -11.6898
4 2 6.34459 4.21399 4.8178 -15.6232 -6.98391 9.10235
2 1 5.65851 5.07269 5.01177 0.399004 -1.18177 -3.31253
ITEM: TIMESTEP
52300
ITEM: NUMBER OF ATOMS
6
ITEM: BOX BOUNDS pp pp pp
0.0000000000000000e+00 1.0000000000000000e+01
0.0000000000000000e+00 1.0000000000000000e+01
0.0000000000000000e+00 1.0000000000000000e+01
ITEM: ATOMS id type x y z vx vy vz
1 1 4.39536 5.18413 5.2074 1.14452 4.46874 1.69069
5 2 3.86348 6.0121 4.77054 0.844699 -4.28697 -2.82629
6 2 3.93379 4.72878 6.05327 15.8047 9.46718 0.604881
3 2 6.05166 5.28242 3.94931 -14.1198 -15.6103 1.50548
4 2 6.14682 4.00127 5.25514 5.52287 5.42377 -2.56705
2 1 5.60521 4.81377 4.79038 -1.82028 -4.04861 -1.41518
ITEM: TIMESTEP
52400
ITEM: NUMBER OF ATOMS
6
ITEM: BOX BOUNDS pp pp pp
0.0000000000000000e+00 1.0000000000000000e+01
0.0000000000000000e+00 1.0000000000000000e+01
0.0000000000000000e+00 1.0000000000000000e+01
ITEM: ATOMS id type x y z vx vy vz
1 1 4.63411 5.46392 5.30729 3.41717 0.116901 0.0588308
5 2 3.75619 5.86744 4.794 -7.32863 5.82561 -3.07282
6 2 4.90116 5.88546 6.29772 17.3651 16.7961 3.31724
3 2 5.11442 4.09818 3.70462 -12.327 -17.7004 -3.34897
4 2 6.25687 4.13287 5.16927 9.42138 -4.14058 4.13869
2 1 5.36369 4.53739 4.69575 -4.01558 -0.182423 -0.145616
ITEM: TIMESTEP
52500
ITEM: NUMBER OF ATOMS
6
ITEM: BOX BOUNDS pp pp pp
0.0000000000000000e+00 1.0000000000000000e+01
0.0000000000000000e+00 1.0000000000000000e+01
0.0000000000000000e+00 1.0000000000000000e+01
ITEM: ATOMS id type x y z vx vy vz
1 1 4.91123 5.6209 5.21971 3.64735 1.03852 -0.301472
5 2 3.95842 5.99261 5.63972 21.1535 -1.19185 0.661818
6 2 5.75344 6.31678 5.22568 -10.7921 2.02618 -14.4224
3 2 4.25073 3.67803 4.78526 2.33489 3.6493 12.3348
4 2 6.04351 4.02172 4.34701 -21.3046 5.57412 0.506501
2 1 5.08846 4.3783 4.78064 -2.92494 -1.88257 0.378618
ITEM: TIMESTEP
52600
ITEM: NUMBER OF ATOMS
6
ITEM: BOX BOUNDS pp pp pp
0.0000000000000000e+00 1.0000000000000000e+01
0.0000000000000000e+00 1.0000000000000000e+01
0.0000000000000000e+00 1.0000000000000000e+01
ITEM: ATOMS id type x y z vx vy vz
1 1 5.20086 5.63152 5.07603 1.74038 -1.50145 -0.787637
5 2 5.25433 6.07959 6.04659 21.4752 8.0081 8.58929
6 2 5.54503 6.23487 4.25301 -5.32551 -5.2967 -11.003
3 2 4.47622 3.79215 5.76675 0.875155 4.48475 5.34142
4 2 4.75588 3.91243 3.95087 -20.7228 -12.57 -7.71099
2 1 4.79671 4.36685 4.92268 -1.43004 1.95242 1.18905
ITEM: TIMESTEP
52700
ITEM: NUMBER OF ATOMS
6
ITEM: BOX BOUNDS pp pp pp
0.0000000000000000e+00 1.0000000000000000e+01
0.0000000000000000e+00 1.0000000000000000e+01
0.0000000000000000e+00 1.0000000000000000e+01
ITEM: ATOMS id type x y z vx vy vz
1 1 5.43193 5.47882 4.83069 0.563512 -1.51982 -2.55111
5 2 6.4388 5.51058 5.30688 0.308522 -15.4116 -15.753
6 2 5.17158 6.26755 4.08185 2.90965 5.97123 -3.45206
3 2 4.79321 3.70943 5.91228 -6.65325 -5.18894 4.28903
4 2 3.574 4.46921 4.68368 -2.33813 11.1634 13.7573
2 1 4.57016 4.52478 5.17075 -0.079022 1.81068 2.64835
ITEM: TIMESTEP
52800
ITEM: NUMBER OF ATOMS
6
ITEM: BOX BOUNDS pp pp pp
0.0000000000000000e+00 1.0000000000000000e+01
0.0000000000000000e+00 1.0000000000000000e+01
0.0000000000000000e+00 1.0000000000000000e+01
ITEM: ATOMS id type x y z vx vy vz
1 1 5.46012 5.21769 4.56263 -0.911657 -1.75733 -2.24969
5 2 6.21239 4.5743 4.12682 -11.4808 -2.25863 -10.9803
6 2 5.49805 6.25254 4.31868 12.008 -14.3451 -0.289378
3 2 4.51452 3.74673 5.68427 -6.23576 11.0078 -6.0023
4 2 3.77043 5.41279 5.86713 13.3981 4.09181 3.61721
2 1 4.54048 4.78342 5.43779 0.266346 1.88355 3.3956
ITEM: TIMESTEP
52900
ITEM: NUMBER OF ATOMS
6
ITEM: BOX BOUNDS pp pp pp
0.0000000000000000e+00 1.0000000000000000e+01
0.0000000000000000e+00 1.0000000000000000e+01
0.0000000000000000e+00 1.0000000000000000e+01
ITEM: ATOMS id type x y z vx vy vz
1 1 5.32304 4.97791 4.41694 -3.76347 -2.47161 -1.01412
5 2 4.97066 4.36022 3.59421 -9.24121 -4.97985 -15.2436
6 2 6.24997 5.56212 4.21427 15.1111 -7.36788 1.13178
3 2 3.76924 4.41722 5.77861 -15.278 10.5973 1.58804
4 2 5.04782 5.66108 6.38368 9.29229 7.48303 14.2466
2 1 4.67401 5.022 5.58567 3.77319 1.99053 0.869538
ITEM: TIMESTEP
53000
ITEM: NUMBER OF ATOMS
6
ITEM: BOX BOUNDS pp pp pp
0.0000000000000000e+00 1.0000000000000000e+01
0.0000000000000000e+00 1.0000000000000000e+01
0.0000000000000000e+00 1.0000000000000000e+01
ITEM: ATOMS id type x y z vx vy vz
1 1 5.08493 4.73329 4.39235 -1.83141 -3.41196 -1.43337
5 2 4.34074 4.91483 3.58348 6.57161 4.58122 17.4267
6 2 5.97672 4.15616 4.13866 -15.592 -9.12502 -3.05636
3 2 4.01233 5.82231 5.88535 17.6657 11.7185 4.58718
4 2 5.64625 5.09144 6.42159 -9.29206 -3.54364 -10.3408
2 1 4.91728 5.26795 5.60536 1.88568 3.10724 0.710255
ITEM: TIMESTEP
53100
ITEM: NUMBER OF ATOMS
6
ITEM: BOX BOUNDS pp pp pp
0.0000000000000000e+00 1.0000000000000000e+01
0.0000000000000000e+00 1.0000000000000000e+01
0.0000000000000000e+00 1.0000000000000000e+01
ITEM: ATOMS id type x y z vx vy vz
5 2 4.42939 5.04688 3.57206 -2.95027 -3.9688 -17.0402
1 1 4.7478 4.62654 4.50195 -4.36543 0.355789 2.43802
6 2 4.63823 3.56894 4.624 -9.94247 1.93386 5.82664
3 2 5.3478 6.43476 5.37563 9.72069 0.776471 -10.3069
2 1 5.25362 5.3715 5.49724 5.03749 -0.106815 -1.78488
4 2 5.57012 4.97243 6.43982 -4.83626 -1.70833 13.7375
ITEM: TIMESTEP
53200
ITEM: NUMBER OF ATOMS
6
ITEM: BOX BOUNDS pp pp pp
0.0000000000000000e+00 1.0000000000000000e+01
0.0000000000000000e+00 1.0000000000000000e+01
0.0000000000000000e+00 1.0000000000000000e+01
ITEM: ATOMS id type x y z vx vy vz
5 2 4.4235 4.53886 3.6266 -4.27375 -5.71791 5.1659
1 1 4.47458 4.70436 4.72274 -1.849 1.15901 1.0633
6 2 3.54626 4.39561 5.27907 -11.1051 11.1981 8.53454
3 2 6.44697 5.58851 4.70861 7.81362 -12.084 -8.18507
2 1 5.52926 5.29776 5.27789 2.26676 -1.51733 -1.02788
4 2 5.5399 5.45126 6.38016 2.58719 10.8736 -5.93749
ITEM: TIMESTEP
53300
ITEM: NUMBER OF ATOMS
6
ITEM: BOX BOUNDS pp pp pp
0.0000000000000000e+00 1.0000000000000000e+01
0.0000000000000000e+00 1.0000000000000000e+01
0.0000000000000000e+00 1.0000000000000000e+01
ITEM: ATOMS id type x y z vx vy vz
5 2 3.94715 3.95274 4.5452 6.14998 5.9923 11.4891
1 1 4.34248 4.88527 4.94175 -3.12806 3.06826 4.05782
6 2 3.62076 5.61347 5.23634 8.08957 0.75884 -11.1029
3 2 6.37146 4.37111 4.78136 -4.15244 3.24886 13.7412
2 1 5.65675 5.11711 5.05729 2.10828 -3.41822 -4.04643
4 2 6.07224 6.03398 5.45031 2.06467 -5.82993 -14.2632
ITEM: TIMESTEP
53400
ITEM: NUMBER OF ATOMS
6
ITEM: BOX BOUNDS pp pp pp
0.0000000000000000e+00 1.0000000000000000e+01
0.0000000000000000e+00 1.0000000000000000e+01
0.0000000000000000e+00 1.0000000000000000e+01
ITEM: ATOMS id type x y z vx vy vz
5 2 3.83247 4.55837 5.9304 -10.5246 5.9643 20.7142
1 1 4.37116 5.13139 5.18223 2.49954 1.78499 2.9158
6 2 3.85121 6.01493 4.77318 -0.871743 7.10053 -9.7589
3 2 6.18944 4.01063 5.23725 0.757459 -9.76187 13.0679
2 1 5.62548 4.86666 4.817 -2.11103 -1.74871 -3.36019
4 2 6.16946 5.43894 4.07018 6.00931 -3.73525 -18.7278
ITEM: TIMESTEP
53500
ITEM: NUMBER OF ATOMS
6
ITEM: BOX BOUNDS pp pp pp
0.0000000000000000e+00 1.0000000000000000e+01
0.0000000000000000e+00 1.0000000000000000e+01
0.0000000000000000e+00 1.0000000000000000e+01
ITEM: ATOMS id type x y z vx vy vz
5 2 4.73196 5.73404 6.34834 13.5913 9.17498 -19.4633
1 1 4.57968 5.42302 5.29127 1.66697 2.4336 0.966
6 2 3.72317 5.90982 4.80141 3.88021 -0.216745 9.11142
3 2 6.27507 4.11623 5.21708 -6.3453 3.20335 -5.68737
2 1 5.42245 4.57461 4.70745 -1.76297 -2.97143 -1.08993
4 2 5.24682 4.26772 3.6502 -9.98216 -5.75282 17.5161
ITEM: TIMESTEP
53600
ITEM: NUMBER OF ATOMS
6
ITEM: BOX BOUNDS pp pp pp
0.0000000000000000e+00 1.0000000000000000e+01
0.0000000000000000e+00 1.0000000000000000e+01
0.0000000000000000e+00 1.0000000000000000e+01
ITEM: ATOMS id type x y z vx vy vz
5 2 5.6313 6.34873 5.4164 14.6185 5.18948 -19.9264
1 1 4.8737 5.61154 5.23974 1.48105 -0.337362 -0.0196577
6 2 3.88042 5.88986 5.51486 3.60223 1.05467 6.63237
3 2 6.12378 4.10579 4.4869 -7.88741 -10.4908 -7.98959
2 1 5.12582 4.3888 4.75971 -1.2092 1.31766 0.717977
4 2 4.37262 3.65115 4.59023 -13.5727 -7.43472 12.9624
ITEM: TIMESTEP
53700
ITEM: NUMBER OF ATOMS
6
ITEM: BOX BOUNDS pp pp pp
0.0000000000000000e+00 1.0000000000000000e+01
0.0000000000000000e+00 1.0000000000000000e+01
0.0000000000000000e+00 1.0000000000000000e+01
ITEM: ATOMS id type x y z vx vy vz
5 2 5.60145 6.27482 4.31774 -2.45246 2.82675 -4.89865
1 1 5.14926 5.64127 5.108 2.45454 -1.39961 -3.87503
6 2 5.03908 6.10126 6.12532 16.9746 -3.01509 5.5249
3 2 4.9696 3.85881 3.89305 -12.6894 4.52866 -7.82529
2 1 4.84919 4.3632 4.89118 -2.76477 1.00837 4.28877
4 2 4.41083 3.71145 5.67549 1.86394 0.321787 2.26887
ITEM: TIMESTEP
53800
ITEM: NUMBER OF ATOMS
6
ITEM: BOX BOUNDS pp pp pp
0.0000000000000000e+00 1.0000000000000000e+01
0.0000000000000000e+00 1.0000000000000000e+01
0.0000000000000000e+00 1.0000000000000000e+01
ITEM: ATOMS id type x y z vx vy vz
5 2 5.18025 6.24554 4.11937 1.15892 -9.00054 6.26651
1 1 5.41485 5.5103 4.88314 1.87709 -1.78949 -0.811254
6 2 6.32145 5.69215 5.42739 2.11049 -9.46401 -24.154
3 2 3.70153 4.3238 4.5448 0.569007 10.1706 19.8422
2 1 4.58367 4.48831 5.11878 -2.50154 1.48402 0.94019
4 2 4.81691 3.75469 5.88739 3.60257 11.9339 -3.49106
ITEM: TIMESTEP
53900
ITEM: NUMBER OF ATOMS
6
ITEM: BOX BOUNDS pp pp pp
0.0000000000000000e+00 1.0000000000000000e+01
0.0000000000000000e+00 1.0000000000000000e+01
0.0000000000000000e+00 1.0000000000000000e+01
ITEM: ATOMS id type x y z vx vy vz
5 2 5.46051 6.31452 4.28945 3.05993 11.744 0.206705
1 1 5.46113 5.27515 4.60244 -2.05254 -3.54576 -1.61054
6 2 6.32825 4.67422 4.2889 -0.850047 -17.4676 -11.3079
3 2 3.65964 5.32027 5.70449 -2.35202 12.1028 11.7172
2 1 4.53738 4.72484 5.39751 2.85756 4.2624 1.43355
4 2 4.57182 3.69068 5.71955 -9.45066 -14.9188 1.49303
ITEM: TIMESTEP
54000
ITEM: NUMBER OF ATOMS
6
ITEM: BOX BOUNDS pp pp pp
0.0000000000000000e+00 1.0000000000000000e+01
0.0000000000000000e+00 1.0000000000000000e+01
0.0000000000000000e+00 1.0000000000000000e+01
ITEM: ATOMS id type x y z vx vy vz
5 2 6.16459 5.76119 4.32127 -1.41459 -21.1629 -1.54216
1 1 5.34971 5.01273 4.43044 -1.32169 -0.51863 -0.905189
6 2 5.1498 4.32932 3.59374 -10.9037 2.58445 7.96209
3 2 4.84135 5.66783 6.4128 14.3201 -1.47774 -7.02085
2 1 4.6505 4.98798 5.5652 1.05424 0.0647235 0.897746
4 2 3.84413 4.2327 5.72599 1.18521 25.465 0.689607
ITEM: TIMESTEP
54100
ITEM: NUMBER OF ATOMS
6
ITEM: BOX BOUNDS pp pp pp
0.0000000000000000e+00 1.0000000000000000e+01
0.0000000000000000e+00 1.0000000000000000e+01
0.0000000000000000e+00 1.0000000000000000e+01
ITEM: ATOMS id type x y z vx vy vz
6 2 4.41486 4.83774 3.59294 0.867172 0.99875 -3.31719
5 2 6.08786 4.3551 4.13506 0.342709 -15.3505 1.68272
1 1 5.13409 4.77103 4.38387 -5.46938 -1.04444 0.794727
2 1 4.86789 5.23172 5.61748 5.6022 1.51541 0.226633
4 2 3.89886 5.62452 5.85113 -1.85542 15.1359 -10.1919
3 2 5.5773 5.14937 6.40653 -0.937247 -6.3962 -0.344235
ITEM: TIMESTEP
54200
ITEM: NUMBER OF ATOMS
6
ITEM: BOX BOUNDS pp pp pp
0.0000000000000000e+00 1.0000000000000000e+01
0.0000000000000000e+00 1.0000000000000000e+01
0.0000000000000000e+00 1.0000000000000000e+01
ITEM: ATOMS id type x y z vx vy vz
6 2 4.43474 5.11755 3.5502 0.549527 6.81402 -4.38441
5 2 4.83854 3.51431 4.47697 -10.2405 -0.507443 7.66419
1 1 4.80714 4.62346 4.4872 -3.83755 -1.49618 2.75887
2 1 5.19356 5.37793 5.51543 3.96867 1.11401 -3.54211
4 2 5.15606 6.48127 5.49635 12.9042 3.84201 -1.16589
3 2 5.56471 4.86983 6.44687 -4.7758 -5.59466 7.21923
ITEM: TIMESTEP
54300
ITEM: NUMBER OF ATOMS
6
ITEM: BOX BOUNDS pp pp pp
0.0000000000000000e+00 1.0000000000000000e+01
0.0000000000000000e+00 1.0000000000000000e+01
0.0000000000000000e+00 1.0000000000000000e+01
ITEM: ATOMS id type x y z vx vy vz
6 2 4.47693 4.63196 3.60207 3.33885 -3.36064 16.1493
5 2 3.69921 4.24177 5.24242 -0.532127 14.5252 -0.0548933
1 1 4.51199 4.68155 4.66753 -4.01838 0.65121 1.75041
2 1 5.48518 5.31834 5.33056 4.08263 -1.13119 -2.00058
4 2 6.32599 5.74729 4.78083 -1.80245 -15.3625 1.25349
3 2 5.534 5.3799 6.39931 -1.76994 9.91744 -14.3668
ITEM: TIMESTEP
54400
ITEM: NUMBER OF ATOMS
6
ITEM: BOX BOUNDS pp pp pp
0.0000000000000000e+00 1.0000000000000000e+01
0.0000000000000000e+00 1.0000000000000000e+01
0.0000000000000000e+00 1.0000000000000000e+01
ITEM: ATOMS id type x y z vx vy vz
6 2 4.07186 3.94777 4.34698 -15.3687 -9.90986 4.15855
5 2 3.56117 5.48651 5.27027 -5.83141 22.2583 -0.417654
1 1 4.35724 4.85432 4.90538 0.981027 0.0994868 2.7011
2 1 5.64301 5.14869 5.09309 -0.000883816 0.255474 -2.67492
4 2 6.42777 4.48333 4.75466 0.804051 -26.3753 -0.411749
3 2 5.93859 6.04611 5.64815 8.71663 9.79712 -3.6411
ITEM: TIMESTEP
54500
ITEM: NUMBER OF ATOMS
6
ITEM: BOX BOUNDS pp pp pp
0.0000000000000000e+00 1.0000000000000000e+01
0.0000000000000000e+00 1.0000000000000000e+01
0.0000000000000000e+00 1.0000000000000000e+01
ITEM: ATOMS id type x y z vx vy vz
6 2 3.79731 4.37851 5.77078 10.7572 9.33068 10.0451
5 2 3.79708 5.99873 4.81924 4.85467 -11.4688 -1.71568
1 1 4.35835 5.08712 5.14018 -0.891963 5.28662 2.08881
2 1 5.64488 4.91024 4.85914 0.346078 -5.16385 -2.27274
4 2 6.20254 4.01039 5.20097 -1.86889 10.4771 -0.458657
3 2 6.16705 5.64344 4.21893 -7.23812 -9.80197 -5.67908
ITEM: TIMESTEP
54600
ITEM: NUMBER OF ATOMS
6
ITEM: BOX BOUNDS pp pp pp
0.0000000000000000e+00 1.0000000000000000e+01
0.0000000000000000e+00 1.0000000000000000e+01
0.0000000000000000e+00 1.0000000000000000e+01
ITEM: ATOMS id type x y z vx vy vz
6 2 4.54804 5.57329 6.34876 16.5418 15.215 -5.21438
5 2 3.77999 5.84606 4.7098 -4.66885 4.1425 -5.2663
1 1 4.54063 5.38154 5.30049 1.80069 1.84337 2.26494
2 1 5.45808 4.62117 4.69961 -2.45314 -1.93082 -1.76546
4 2 6.21869 4.14845 5.2853 3.88476 -3.95868 0.792413
3 2 5.47113 4.39948 3.65678 -7.98306 -14.3567 3.73635
ITEM: TIMESTEP
54700
ITEM: NUMBER OF ATOMS
6
ITEM: BOX BOUNDS pp pp pp
0.0000000000000000e+00 1.0000000000000000e+01
0.0000000000000000e+00 1.0000000000000000e+01
0.0000000000000000e+00 1.0000000000000000e+01
ITEM: ATOMS id type x y z vx vy vz
6 2 5.59366 6.31561 5.60334 8.09133 17.5227 -10.1321
5 2 3.75795 5.8651 5.4093 3.02875 2.35727 8.49532
1 1 4.81346 5.58468 5.25127 3.32788 0.934345 -0.334804
2 1 5.18653 4.41706 4.7474 -3.06354 -1.69687 0.0352824
4 2 6.23963 4.11378 4.5967 -0.517803 -1.16206 -4.80887
3 2 4.41134 3.68432 4.40829 -13.7522 -9.63157 10.0148
ITEM: TIMESTEP
54800
ITEM: NUMBER OF ATOMS
6
ITEM: BOX BOUNDS pp pp pp
0.0000000000000000e+00 1.0000000000000000e+01
0.0000000000000000e+00 1.0000000000000000e+01
0.0000000000000000e+00 1.0000000000000000e+01
ITEM: ATOMS id type x y z vx vy vz
6 2 5.61485 6.30064 4.4637 -8.74014 -14.6264 -1.84985
5 2 4.8162 6.08509 6.09407 24.8046 3.10018 -8.73768
1 1 5.10308 5.64117 5.13474 1.75038 1.55138 0.341307
2 1 4.89463 4.35617 4.86331 -2.12357 -1.29379 0.0225171
4 2 5.21578 3.93217 3.91137 -19.7952 -4.01951 7.12593
3 2 4.3829 3.71335 5.55588 8.17759 12.4764 -0.873753
ITEM: TIMESTEP
54900
ITEM: NUMBER OF ATOMS
6
ITEM: BOX BOUNDS pp pp pp
0.0000000000000000e+00 1.0000000000000000e+01