ITEM: TIMESTEP
49600
ITEM: NUMBER OF ATOMS
6
ITEM: BOX BOUNDS pp pp pp
0.0000000000000000e+00 1.0000000000000000e+01
0.0000000000000000e+00 1.0000000000000000e+01
0.0000000000000000e+00 1.0000000000000000e+01
ITEM: ATOMS id type x y z vx vy vz
6 2 4.54131 4.47942 3.59998 -13.4198 2.37099 -4.49038
1 1 5.20901 4.85024 4.38489 -2.35804 -0.882354 1.37881
5 2 6.2387 5.0131 4.09613 14.7035 -18.0648 -10.0054
4 2 3.75815 5.00115 5.89289 -17.4866 14.0825 4.89104
2 1 4.79333 5.14731 5.61559 2.25894 0.878689 -0.514642
3 2 5.43648 5.53512 6.40709 17.3838 1.65497 -0.692686
ITEM: TIMESTEP
49700
ITEM: NUMBER OF ATOMS
6
ITEM: BOX BOUNDS pp pp pp
0.0000000000000000e+00 1.0000000000000000e+01
0.0000000000000000e+00 1.0000000000000000e+01
0.0000000000000000e+00 1.0000000000000000e+01
ITEM: ATOMS id type x y z vx vy vz
6 2 4.2751 4.99751 3.60385 5.75489 -0.355222 -2.78304
1 1 4.92533 4.66286 4.43421 -4.53428 -0.860326 0.587669
5 2 5.50523 3.73724 4.20965 -16.9807 5.61541 12.8997
4 2 4.48905 6.26142 5.78786 16.6883 -4.34445 -12.3525
2 1 5.07286 5.33953 5.56856 4.19714 0.570997 -0.569892
3 2 5.75471 4.97499 6.36738 -1.44513 2.53193 2.02403
ITEM: TIMESTEP
49800
ITEM: NUMBER OF ATOMS
6
ITEM: BOX BOUNDS pp pp pp
0.0000000000000000e+00 1.0000000000000000e+01
0.0000000000000000e+00 1.0000000000000000e+01
0.0000000000000000e+00 1.0000000000000000e+01
ITEM: ATOMS id type x y z vx vy vz
6 2 4.41038 4.95621 3.60923 10.9448 -1.66981 4.60396
1 1 4.60205 4.63343 4.60454 -3.74054 1.35292 3.09579
5 2 4.12772 3.72569 4.91617 -11.3225 -1.4236 8.00628
4 2 5.85609 6.28807 5.09588 13.3214 -2.49575 -3.70651
2 1 5.39804 5.36458 5.39469 2.95388 -1.43785 -3.49587
3 2 5.60726 5.0533 6.38975 -3.56971 6.60119 -4.13636
ITEM: TIMESTEP
49900
ITEM: NUMBER OF ATOMS
6
ITEM: BOX BOUNDS pp pp pp
0.0000000000000000e+00 1.0000000000000000e+01
0.0000000000000000e+00 1.0000000000000000e+01
0.0000000000000000e+00 1.0000000000000000e+01
ITEM: ATOMS id type x y z vx vy vz
6 2 4.19244 4.29479 3.82147 -7.83603 -10.8766 -0.196339
1 1 4.39941 4.7769 4.81649 0.104541 2.99473 3.20305
5 2 3.53493 4.95372 5.47595 -4.43004 11.7072 2.62575
4 2 6.47258 5.07899 4.52617 5.03153 -14.6016 -4.14932
2 1 5.59924 5.2205 5.18416 0.49567 -2.76448 -3.07896
3 2 5.81861 5.70302 6.17048 0.082381 11.0272 0.241216
ITEM: TIMESTEP
50000
ITEM: NUMBER OF ATOMS
6
ITEM: BOX BOUNDS pp pp pp
0.0000000000000000e+00 1.0000000000000000e+01
0.0000000000000000e+00 1.0000000000000000e+01
0.0000000000000000e+00 1.0000000000000000e+01
ITEM: ATOMS id type x y z vx vy vz
4 2 6.24904 4.08605 4.85252 -16.6385 3.08431 11.1629
2 1 5.6678 5.00755 4.95076 0.234912 -0.796366 -3.37885
3 2 6.1987 5.94418 4.97314 1.42348 -14.6129 -13.6023
6 2 3.78025 4.07247 5.02436 -0.891726 16.3117 9.07536
1 1 4.33577 4.99166 5.05143 -0.0564315 0.932866 3.7149
5 2 3.73186 5.90621 5.12566 13.9799 -6.40972 -10.6404
ITEM: TIMESTEP
50100
ITEM: NUMBER OF ATOMS
6
ITEM: BOX BOUNDS pp pp pp
0.0000000000000000e+00 1.0000000000000000e+01
0.0000000000000000e+00 1.0000000000000000e+01
0.0000000000000000e+00 1.0000000000000000e+01
ITEM: ATOMS id type x y z vx vy vz
4 2 6.10444 3.95713 5.26212 15.4453 -9.31185 4.79487
2 1 5.56573 4.74235 4.75182 -4.16334 -2.77176 0.33153
3 2 5.94843 5.05049 3.77732 -9.59804 -8.71562 -13.6598
6 2 4.06427 4.94096 6.22349 10.8927 1.45322 10.0779
1 1 4.43368 5.25836 5.24749 3.58944 3.19131 0.533448
5 2 3.8924 6.04259 4.74717 -9.90135 11.5748 -11.5201
ITEM: TIMESTEP
50200
ITEM: NUMBER OF ATOMS
6
ITEM: BOX BOUNDS pp pp pp
0.0000000000000000e+00 1.0000000000000000e+01
0.0000000000000000e+00 1.0000000000000000e+01
0.0000000000000000e+00 1.0000000000000000e+01
ITEM: ATOMS id type x y z vx vy vz
4 2 6.25538 4.07279 5.08914 -11.9668 6.53795 -4.16281
2 1 5.29616 4.48677 4.69853 -2.19703 -1.48469 -0.608515
3 2 4.88323 3.97641 3.80243 -12.8163 -10.3921 12.6284
6 2 5.12517 6.02284 6.19976 10.2203 9.67707 -8.40983
1 1 4.70203 5.5143 5.3051 2.35848 1.26673 -0.00471522
5 2 3.76023 5.91482 4.86731 12.6389 -3.22575 7.25154
ITEM: TIMESTEP
50300
ITEM: NUMBER OF ATOMS
6
ITEM: BOX BOUNDS pp pp pp
0.0000000000000000e+00 1.0000000000000000e+01
0.0000000000000000e+00 1.0000000000000000e+01
0.0000000000000000e+00 1.0000000000000000e+01
ITEM: ATOMS id type x y z vx vy vz
4 2 5.86176 3.95766 4.26672 -3.86238 1.04956 -8.50736
2 1 5.0264 4.35653 4.80551 -4.20395 -0.967381 1.34089
3 2 4.18194 3.73088 4.97276 3.56661 3.10185 13.3917
6 2 5.81495 6.26834 5.033 -5.87836 -0.659466 -13.1841
1 1 4.97408 5.64022 5.19617 4.20626 0.320101 -1.17857
5 2 4.1381 6.08146 5.70932 6.14656 4.2211 6.36552
ITEM: TIMESTEP
50400
ITEM: NUMBER OF ATOMS
6
ITEM: BOX BOUNDS pp pp pp
0.0000000000000000e+00 1.0000000000000000e+01
0.0000000000000000e+00 1.0000000000000000e+01
0.0000000000000000e+00 1.0000000000000000e+01
ITEM: ATOMS id type x y z vx vy vz
4 2 4.5292 3.91118 3.99432 -21.7873 -6.13584 1.61702
2 1 4.74694 4.38505 4.96465 -1.28266 1.76028 -0.155679
3 2 4.47779 3.81818 5.89263 0.117287 0.955527 13.8854
6 2 5.53506 6.19928 4.11986 -4.51326 -3.27473 -15.8842
1 1 5.25408 5.6137 5.03425 1.95978 -1.13578 -0.18242
5 2 5.44822 6.08582 6.00814 18.1147 1.01345 4.41058
ITEM: TIMESTEP
50500
ITEM: NUMBER OF ATOMS
6
ITEM: BOX BOUNDS pp pp pp
0.0000000000000000e+00 1.0000000000000000e+01
0.0000000000000000e+00 1.0000000000000000e+01
0.0000000000000000e+00 1.0000000000000000e+01
ITEM: ATOMS id type x y z vx vy vz
4 2 3.51538 4.58604 4.84447 9.92078 16.6935 14.6957
2 1 4.54864 4.56216 5.21973 -1.0056 -0.258609 3.46902
3 2 4.77671 3.7704 5.91276 -8.02182 8.42935 -4.3586
6 2 5.2022 6.21038 4.0672 5.80881 -4.6089 7.06688
1 1 5.45379 5.44119 4.78097 1.30046 -0.264174 -3.4821
5 2 6.47916 5.39291 5.16905 -11.2213 -14.2844 -17.2482
ITEM: TIMESTEP
50600
ITEM: NUMBER OF ATOMS
6
ITEM: BOX BOUNDS pp pp pp
0.0000000000000000e+00 1.0000000000000000e+01
0.0000000000000000e+00 1.0000000000000000e+01
0.0000000000000000e+00 1.0000000000000000e+01
ITEM: ATOMS id type x y z vx vy vz
4 2 3.88648 5.53176 5.93326 -1.30922 19.6186 13.2157
2 1 4.55634 4.83003 5.47015 1.63796 2.18744 1.944
3 2 4.44571 3.77702 5.72871 -3.10566 -5.60536 -1.93198
6 2 5.55301 6.21376 4.25621 12.2921 3.98846 -1.38456
1 1 5.44434 5.17012 4.53288 -2.24804 -2.2993 -1.36264
5 2 6.10919 4.47515 4.04746 -0.607514 -16.6687 -16.8267
ITEM: TIMESTEP
50700
ITEM: NUMBER OF ATOMS
6
ITEM: BOX BOUNDS pp pp pp
0.0000000000000000e+00 1.0000000000000000e+01
0.0000000000000000e+00 1.0000000000000000e+01
0.0000000000000000e+00 1.0000000000000000e+01
ITEM: ATOMS id type x y z vx vy vz
4 2 5.1663 5.69673 6.3845 -1.70972 -6.17062 -4.38262
2 1 4.70679 5.05716 5.59422 3.66298 2.51144 2.85586
3 2 3.75433 4.53634 5.84261 -4.50767 15.9902 0.223616
6 2 6.24598 5.4534 4.13557 4.42066 -14.1911 5.7858
1 1 5.2938 4.94167 4.40869 -3.11153 -2.78404 -3.2483
5 2 4.82881 4.32707 3.60455 -4.77445 7.61984 3.04948
ITEM: TIMESTEP
50800
ITEM: NUMBER OF ATOMS
6
ITEM: BOX BOUNDS pp pp pp
0.0000000000000000e+00 1.0000000000000000e+01
0.0000000000000000e+00 1.0000000000000000e+01
0.0000000000000000e+00 1.0000000000000000e+01
ITEM: ATOMS id type x y z vx vy vz
4 2 5.68858 5.1032 6.36395 3.24451 -6.15905 -0.924884
2 1 4.95705 5.28794 5.59873 1.00335 3.11456 -0.595552
3 2 4.13605 5.88991 5.89345 17.9782 10.2208 2.3153
6 2 5.87338 4.09694 4.14868 -14.8325 -9.92679 -3.35425
1 1 5.0421 4.71192 4.39806 -1.35298 -3.37932 0.493792
5 2 4.31451 4.9112 3.63402 -2.22401 9.01993 3.17642
ITEM: TIMESTEP
50900
ITEM: NUMBER OF ATOMS
6
ITEM: BOX BOUNDS pp pp pp
0.0000000000000000e+00 1.0000000000000000e+01
0.0000000000000000e+00 1.0000000000000000e+01
0.0000000000000000e+00 1.0000000000000000e+01
ITEM: ATOMS id type x y z vx vy vz
4 2 5.63213 4.96602 6.43219 -1.32158 0.206478 11.9118
2 1 5.28551 5.36793 5.4733 4.4523 -1.45228 -1.77924
3 2 5.41722 6.47036 5.31322 9.75024 7.89359 -13.1146
6 2 4.54713 3.53727 4.68093 -10.7089 -7.24343 5.79123
1 1 4.71762 4.63049 4.52727 -4.31484 1.92115 2.39883
5 2 4.36872 5.04479 3.5688 0.642284 -6.44376 -11.9715
ITEM: TIMESTEP
51000
ITEM: NUMBER OF ATOMS
6
ITEM: BOX BOUNDS pp pp pp
0.0000000000000000e+00 1.0000000000000000e+01
0.0000000000000000e+00 1.0000000000000000e+01
0.0000000000000000e+00 1.0000000000000000e+01
ITEM: ATOMS id type x y z vx vy vz
1 1 4.45409 4.71693 4.74853 -2.92012 0.916084 1.20436
5 2 4.36445 4.54551 3.66854 -3.60533 -4.23191 17.0069
3 2 6.41602 5.54909 4.66269 -2.06175 -15.2448 4.7967
6 2 3.57235 4.46632 5.32047 6.49625 16.4354 -0.72973
4 2 5.60725 5.44021 6.34163 3.57354 8.37439 -19.8299
2 1 5.54947 5.28294 5.25219 2.55065 -1.36364 -1.30876
ITEM: TIMESTEP
51100
ITEM: NUMBER OF ATOMS
6
ITEM: BOX BOUNDS pp pp pp
0.0000000000000000e+00 1.0000000000000000e+01
0.0000000000000000e+00 1.0000000000000000e+01
0.0000000000000000e+00 1.0000000000000000e+01
ITEM: ATOMS id type x y z vx vy vz
1 1 4.33858 4.9026 4.96098 0.308489 3.83686 4.43716
5 2 3.91035 3.99674 4.56911 -4.95707 -12.886 1.21779
3 2 6.35475 4.33393 4.7166 6.44175 -9.18564 8.9416
6 2 3.65093 5.67988 5.28048 -7.2044 12.2562 -5.93292
4 2 6.11444 5.99421 5.42385 11.7197 12.6394 -8.05273
2 1 5.65907 5.09697 5.04001 -0.812004 -4.07385 -4.11606
ITEM: TIMESTEP
51200
ITEM: NUMBER OF ATOMS
6
ITEM: BOX BOUNDS pp pp pp
0.0000000000000000e+00 1.0000000000000000e+01
0.0000000000000000e+00 1.0000000000000000e+01
0.0000000000000000e+00 1.0000000000000000e+01
ITEM: ATOMS id type x y z vx vy vz
1 1 4.37953 5.15057 5.18877 1.73439 1.12196 3.97282
5 2 3.82287 4.5545 5.95308 -1.48005 20.0041 0.622384
3 2 6.1464 3.94873 5.21368 -4.28003 0.595361 7.6216
6 2 3.86868 6.06537 4.80703 2.02084 -1.34868 -4.20271
4 2 6.18351 5.43748 4.05484 -5.57109 -17.1815 -5.61947
2 1 5.61888 4.84888 4.80898 -0.953063 -1.29562 -3.84038
ITEM: TIMESTEP
51300
ITEM: NUMBER OF ATOMS
6
ITEM: BOX BOUNDS pp pp pp
0.0000000000000000e+00 1.0000000000000000e+01
0.0000000000000000e+00 1.0000000000000000e+01
0.0000000000000000e+00 1.0000000000000000e+01
ITEM: ATOMS id type x y z vx vy vz
1 1 4.58709 5.4354 5.29798 1.39385 2.218 -0.754243
5 2 4.72979 5.71042 6.32863 15.3266 10.7877 -3.42402
3 2 6.21649 4.07939 5.20203 -3.67626 0.533055 -8.19078
6 2 3.79819 5.94474 4.80276 5.52129 -1.14802 10.2121
4 2 5.24203 4.31055 3.66737 -11.9272 -13.2298 5.95491
2 1 5.41425 4.56078 4.70211 -1.83396 -1.96145 0.372223
ITEM: TIMESTEP
51400
ITEM: NUMBER OF ATOMS
6
ITEM: BOX BOUNDS pp pp pp
0.0000000000000000e+00 1.0000000000000000e+01
0.0000000000000000e+00 1.0000000000000000e+01
0.0000000000000000e+00 1.0000000000000000e+01
ITEM: ATOMS id type x y z vx vy vz
1 1 4.88744 5.6154 5.23854 2.34966 -0.765196 -0.390134
5 2 5.69082 6.32386 5.46613 14.4664 5.20449 -17.3199
3 2 6.15394 4.06087 4.5255 1.60147 -11.1902 -10.8772
6 2 3.83891 5.94569 5.45342 -6.39414 7.10198 7.13331
4 2 4.32662 3.6539 4.53087 -11.5678 -8.72196 12.0326
2 1 5.1119 4.38588 4.76364 -2.19071 1.40347 1.14803
ITEM: TIMESTEP
51500
ITEM: NUMBER OF ATOMS
6
ITEM: BOX BOUNDS pp pp pp
0.0000000000000000e+00 1.0000000000000000e+01
0.0000000000000000e+00 1.0000000000000000e+01
0.0000000000000000e+00 1.0000000000000000e+01
ITEM: ATOMS id type x y z vx vy vz
1 1 5.15298 5.64589 5.10575 3.23886 0.695533 -3.55614
5 2 5.67684 6.24579 4.3382 -10.8529 -3.01176 7.83613
3 2 5.01968 3.84625 3.94909 -16.3537 12.3381 6.0178
6 2 4.96129 6.12134 6.05836 18.534 -7.9298 -7.62833
4 2 4.34295 3.75597 5.66635 6.79142 8.44078 -5.13161
2 1 4.84716 4.35665 4.8934 -3.08099 -1.52108 3.46433
ITEM: TIMESTEP
51600
ITEM: NUMBER OF ATOMS
6
ITEM: BOX BOUNDS pp pp pp
0.0000000000000000e+00 1.0000000000000000e+01
0.0000000000000000e+00 1.0000000000000000e+01
0.0000000000000000e+00 1.0000000000000000e+01
ITEM: ATOMS id type x y z vx vy vz
1 1 5.41179 5.51715 4.88549 1.76658 -3.0139 0.0761453
5 2 5.23128 6.19632 4.07186 -8.19456 7.71142 -13.1701
3 2 3.7386 4.27158 4.47894 -16.9543 5.99463 8.65958
6 2 6.27708 5.74697 5.4936 16.5523 -6.12739 -13.5431
4 2 4.78853 3.79921 5.92305 5.36446 -2.441 14.0405
2 1 4.58544 4.48164 5.11739 -1.49534 2.58275 0.26064
ITEM: TIMESTEP
51700
ITEM: NUMBER OF ATOMS
6
ITEM: BOX BOUNDS pp pp pp
0.0000000000000000e+00 1.0000000000000000e+01
0.0000000000000000e+00 1.0000000000000000e+01
0.0000000000000000e+00 1.0000000000000000e+01
ITEM: ATOMS id type x y z vx vy vz
1 1 5.46532 5.27931 4.61058 -0.530535 -1.37732 -3.49559
5 2 5.39778 6.31366 4.20682 4.45546 -7.06162 7.39783
3 2 3.58709 5.27003 5.60592 3.43341 6.43756 8.89876
6 2 6.40489 4.70897 4.3819 -6.7617 -15.4322 -7.99951
4 2 4.60597 3.68773 5.79851 -7.59847 6.87529 -4.84082
2 1 4.53525 4.7223 5.39015 1.07361 2.14778 3.20554
ITEM: TIMESTEP
51800
ITEM: NUMBER OF ATOMS
6
ITEM: BOX BOUNDS pp pp pp
0.0000000000000000e+00 1.0000000000000000e+01
0.0000000000000000e+00 1.0000000000000000e+01
0.0000000000000000e+00 1.0000000000000000e+01
ITEM: ATOMS id type x y z vx vy vz
1 1 5.35828 5.01836 4.43081 -1.62666 -1.32691 -1.69585
5 2 6.05063 5.83244 4.27203 8.07348 -13.2314 -2.11768
3 2 4.71573 5.70895 6.34151 15.293 0.879414 -10.9188
6 2 5.25935 4.29305 3.66434 -12.9912 5.62482 6.75071
4 2 3.95536 4.17381 5.75071 -10.8421 11.4281 0.0210864
2 1 4.64351 4.98091 5.56695 1.66583 0.93241 2.22159
ITEM: TIMESTEP
51900
ITEM: NUMBER OF ATOMS
6
ITEM: BOX BOUNDS pp pp pp
0.0000000000000000e+00 1.0000000000000000e+01
0.0000000000000000e+00 1.0000000000000000e+01
0.0000000000000000e+00 1.0000000000000000e+01
ITEM: ATOMS id type x y z vx vy vz
1 1 5.14872 4.78818 4.38726 -4.92004 -1.8009 0.728584
5 2 6.16458 4.50401 4.09698 6.72775 -14.7691 1.91824
3 2 5.63012 5.25392 6.41144 11.7981 -4.16865 10.4564
6 2 4.39568 4.73512 3.56915 -8.60773 4.30786 -10.8509
4 2 3.82233 5.46642 5.90251 -4.99038 14.2222 -8.66591
2 1 4.85042 5.21519 5.61456 4.5065 1.83511 -0.129205
ITEM: TIMESTEP
52000
ITEM: NUMBER OF ATOMS
6
ITEM: BOX BOUNDS pp pp pp
0.0000000000000000e+00 1.0000000000000000e+01
0.0000000000000000e+00 1.0000000000000000e+01
0.0000000000000000e+00 1.0000000000000000e+01
ITEM: ATOMS id type x y z vx vy vz
1 1 4.83725 4.6291 4.47155 -4.30727 -3.22541 0.95454
5 2 5.00943 3.54229 4.39559 -11.4324 12.4654 7.92473
6 2 4.36607 5.09983 3.60691 7.67131 4.09367 9.44904
3 2 5.63571 4.9122 6.39239 -11.0109 1.48306 -8.2868
4 2 4.95764 6.45309 5.59326 16.4981 -11.7738 -1.36957
2 1 5.16557 5.37024 5.5296 4.16242 2.69937 -1.60219
ITEM: TIMESTEP
52100
ITEM: NUMBER OF ATOMS
6
ITEM: BOX BOUNDS pp pp pp
0.0000000000000000e+00 1.0000000000000000e+01
0.0000000000000000e+00 1.0000000000000000e+01
0.0000000000000000e+00 1.0000000000000000e+01
ITEM: ATOMS id type x y z vx vy vz
1 1 4.53633 4.66905 4.65095 -1.95792 1.80844 2.49267
5 2 3.81515 4.07514 5.18396 -15.9806 3.09738 12.8108
6 2 4.42841 4.75027 3.58502 -0.156499 -3.09233 -2.65986
3 2 5.57891 5.26018 6.41719 -5.65492 7.57148 3.80479
4 2 6.1919 5.93394 4.84616 18.3084 -1.70389 -14.939
2 1 5.46267 5.32927 5.3465 2.25027 -2.30127 -2.41015
ITEM: TIMESTEP
52200
ITEM: NUMBER OF ATOMS
6
ITEM: BOX BOUNDS pp pp pp
0.0000000000000000e+00 1.0000000000000000e+01
0.0000000000000000e+00 1.0000000000000000e+01
0.0000000000000000e+00 1.0000000000000000e+01
ITEM: ATOMS id type x y z vx vy vz
1 1 4.37057 4.83696 4.88299 -0.169778 0.37817 2.72673
5 2 3.50548 5.33254 5.37316 8.22074 12.4645 -6.46497
6 2 4.1139 4.0412 4.1383 -10.2498 -1.03119 6.2986
3 2 5.88698 5.96363 5.86211 7.74777 6.69688 -6.79823
4 2 6.47821 4.63647 4.62207 -14.7535 -15.0907 4.70924
2 1 5.63093 5.1652 5.11753 0.927983 -0.633242 -2.53746
ITEM: TIMESTEP
52300
ITEM: NUMBER OF ATOMS
6
ITEM: BOX BOUNDS pp pp pp
0.0000000000000000e+00 1.0000000000000000e+01
0.0000000000000000e+00 1.0000000000000000e+01
0.0000000000000000e+00 1.0000000000000000e+01
ITEM: ATOMS id type x y z vx vy vz
1 1 4.34552 5.05434 5.10746 0.193822 4.14329 2.7452
5 2 3.81352 5.97756 4.9531 2.8539 -0.941288 -6.70087
6 2 3.77694 4.25629 5.52348 11.9467 9.0075 7.72117
3 2 6.20492 5.75322 4.47994 -9.76549 -15.1011 -7.99744
4 2 6.18996 4.02331 5.07723 3.9288 4.51724 4.12575
2 1 5.65592 4.94475 4.88986 -0.946075 -3.93201 -2.50591
ITEM: TIMESTEP
52400
ITEM: NUMBER OF ATOMS
6
ITEM: BOX BOUNDS pp pp pp
0.0000000000000000e+00 1.0000000000000000e+01
0.0000000000000000e+00 1.0000000000000000e+01
0.0000000000000000e+00 1.0000000000000000e+01
ITEM: ATOMS id type x y z vx vy vz
1 1 4.50282 5.33549 5.28893 3.09008 0.726845 0.620484
5 2 3.84198 5.94524 4.66338 -4.36148 7.35572 -6.15891
6 2 4.34281 5.34963 6.38771 11.4956 15.2202 13.3948
3 2 5.67405 4.63232 3.61444 -6.43277 -16.1338 -11.5499
4 2 6.1822 4.06785 5.31236 6.0469 -6.51721 8.4384
2 1 5.49395 4.66489 4.71308 -3.65639 -0.720542 -0.966603
ITEM: TIMESTEP
52500
ITEM: NUMBER OF ATOMS
6
ITEM: BOX BOUNDS pp pp pp
0.0000000000000000e+00 1.0000000000000000e+01
0.0000000000000000e+00 1.0000000000000000e+01
0.0000000000000000e+00 1.0000000000000000e+01
ITEM: ATOMS id type x y z vx vy vz
1 1 4.7728 5.5643 5.26752 2.91792 1.41731 0.336993
5 2 3.7245 5.89974 5.19037 18.1737 -1.6784 7.8611
6 2 5.44404 6.1867 5.86129 -1.74333 7.20352 -19.3771
3 2 4.55404 3.80515 4.14888 -4.78405 -0.556231 14.5876
4 2 6.28259 4.11575 4.803 -19.2675 5.66444 -5.83151
2 1 5.22698 4.43505 4.73234 -2.27835 -2.30966 -0.105383
ITEM: TIMESTEP
52600
ITEM: NUMBER OF ATOMS
6
ITEM: BOX BOUNDS pp pp pp
0.0000000000000000e+00 1.0000000000000000e+01
0.0000000000000000e+00 1.0000000000000000e+01
0.0000000000000000e+00 1.0000000000000000e+01
ITEM: ATOMS id type x y z vx vy vz
1 1 5.05381 5.64549 5.15725 1.45727 -1.05119 -1.10602
5 2 4.49617 6.05973 5.97458 10.2387 11.6212 17.3448
6 2 5.74059 6.31184 4.6618 1.09819 -5.25049 -15.7507
3 2 4.26331 3.71549 5.36496 -1.44794 4.08975 8.87464
4 2 5.51707 3.9355 4.03015 -8.94551 -15.6384 -15.7275
2 1 4.94496 4.35258 4.84026 -1.53644 1.48572 1.54735
ITEM: TIMESTEP
52700
ITEM: NUMBER OF ATOMS
6
ITEM: BOX BOUNDS pp pp pp
0.0000000000000000e+00 1.0000000000000000e+01
0.0000000000000000e+00 1.0000000000000000e+01
0.0000000000000000e+00 1.0000000000000000e+01
ITEM: ATOMS id type x y z vx vy vz
1 1 5.32964 5.57876 4.97259 1.30523 -0.924821 -2.78228
5 2 5.91876 5.92614 5.85058 10.9193 -14.2167 -13.0713
6 2 5.30499 6.22389 4.05892 0.665065 5.00292 -3.90695
3 2 4.67334 3.7441 5.92414 -4.16985 -5.24478 2.62022
4 2 4.10108 4.05953 4.15009 -10.7504 8.92134 11.2553
2 1 4.67072 4.42509 5.02893 -1.02528 1.38951 3.04266
ITEM: TIMESTEP
52800
ITEM: NUMBER OF ATOMS
6
ITEM: BOX BOUNDS pp pp pp
0.0000000000000000e+00 1.0000000000000000e+01
0.0000000000000000e+00 1.0000000000000000e+01
0.0000000000000000e+00 1.0000000000000000e+01
ITEM: ATOMS id type x y z vx vy vz
1 1 5.48028 5.36258 4.70314 0.0687287 -2.01345 -2.78394
5 2 6.5275 5.09601 4.74116 -3.6775 -5.98101 -16.0416
6 2 5.22209 6.27256 4.22001 11.2749 -7.44059 4.90469
3 2 4.78817 3.73297 5.78778 -3.11729 6.41032 -7.78858
4 2 3.46615 4.88224 5.25245 7.89755 8.1485 9.44282
2 1 4.5196 4.63875 5.29689 -1.10746 1.91801 3.57973
ITEM: TIMESTEP
52900
ITEM: NUMBER OF ATOMS
6
ITEM: BOX BOUNDS pp pp pp
0.0000000000000000e+00 1.0000000000000000e+01
0.0000000000000000e+00 1.0000000000000000e+01
0.0000000000000000e+00 1.0000000000000000e+01
ITEM: ATOMS id type x y z vx vy vz
1 1 5.41021 5.11675 4.48802 -2.83952 -3.43084 -1.95074
5 2 5.68933 4.32625 3.79201 -2.94749 -10.128 -16.5204
6 2 5.86112 6.11717 4.28756 12.5758 3.56839 2.89561
3 2 4.16723 3.8775 5.71411 -14.9906 -1.22902 -0.986864
4 2 4.32269 5.70011 6.18489 2.44537 12.063 14.9444
2 1 4.5866 4.88145 5.51393 3.08431 3.07213 1.92282
ITEM: TIMESTEP
53000
ITEM: NUMBER OF ATOMS
6
ITEM: BOX BOUNDS pp pp pp
0.0000000000000000e+00 1.0000000000000000e+01
0.0000000000000000e+00 1.0000000000000000e+01
0.0000000000000000e+00 1.0000000000000000e+01
ITEM: ATOMS id type x y z vx vy vz
5 2 4.56459 4.56558 3.56294 -0.459488 9.75057 18.3897
1 1 5.24151 4.8689 4.39048 -0.471876 -2.52974 -2.29569
6 2 6.29985 4.99843 4.15895 -7.58336 -15.8269 -5.81509
3 2 3.70458 4.97556 5.86113 7.80229 19.2149 7.71925
2 1 4.75953 5.13364 5.60749 0.679581 2.34919 1.53882
4 2 5.42099 5.42966 6.44299 -2.23448 -10.987 -11.2749
ITEM: TIMESTEP
53100
ITEM: NUMBER OF ATOMS
6
ITEM: BOX BOUNDS pp pp pp
0.0000000000000000e+00 1.0000000000000000e+01
0.0000000000000000e+00 1.0000000000000000e+01
0.0000000000000000e+00 1.0000000000000000e+01
ITEM: ATOMS id type x y z vx vy vz
5 2 4.3486 5.02558 3.60536 -4.17938 1.80781 -17.5068
1 1 4.95375 4.67233 4.41569 -4.38081 -1.52758 1.76851
6 2 5.49106 3.75909 4.26649 -9.46176 -5.50727 3.51382
3 2 4.49768 6.23705 5.73593 7.23423 8.36355 -6.74242
2 1 5.04824 5.32699 5.58299 4.87046 1.98226 -1.09008
4 2 5.64142 4.98588 6.40976 0.5722 -10.0821 12.6511
ITEM: TIMESTEP
53200
ITEM: NUMBER OF ATOMS
6
ITEM: BOX BOUNDS pp pp pp
0.0000000000000000e+00 1.0000000000000000e+01
0.0000000000000000e+00 1.0000000000000000e+01
0.0000000000000000e+00 1.0000000000000000e+01
ITEM: ATOMS id type x y z vx vy vz
5 2 4.45903 4.94991 3.54058 -0.812274 -4.84608 2.56073
1 1 4.63284 4.63119 4.58829 -3.16804 0.782766 0.977359
6 2 4.0868 3.69093 4.88225 -14.0426 1.48672 8.42322
3 2 5.91348 6.29727 5.09716 11.8868 -3.81557 -9.34693
2 1 5.36945 5.37207 5.41361 3.67033 -0.860884 -1.00828
4 2 5.5158 5.02262 6.45928 -3.01717 8.10579 -1.26854
ITEM: TIMESTEP
53300
ITEM: NUMBER OF ATOMS
6
ITEM: BOX BOUNDS pp pp pp
0.0000000000000000e+00 1.0000000000000000e+01
0.0000000000000000e+00 1.0000000000000000e+01
0.0000000000000000e+00 1.0000000000000000e+01
ITEM: ATOMS id type x y z vx vy vz
5 2 4.28788 4.23979 3.84965 3.10829 1.4688 11.8655
1 1 4.40776 4.76646 4.79173 -3.96559 0.680671 3.46304
6 2 3.52458 4.89836 5.37172 4.54247 13.7621 -7.45814
3 2 6.47389 5.07434 4.63147 -1.84901 -10.8773 13.0321
2 1 5.59076 5.23589 5.20885 3.13485 -1.2336 -3.90973
4 2 5.73375 5.75912 6.14206 4.09742 2.23515 -12.1166
ITEM: TIMESTEP
53400
ITEM: NUMBER OF ATOMS
6
ITEM: BOX BOUNDS pp pp pp
0.0000000000000000e+00 1.0000000000000000e+01
0.0000000000000000e+00 1.0000000000000000e+01
0.0000000000000000e+00 1.0000000000000000e+01
ITEM: ATOMS id type x y z vx vy vz
5 2 3.79572 4.01418 5.06548 -18.274 -6.98359 13.7318
1 1 4.33456 4.95981 5.02376 1.11096 0.966155 2.94487
6 2 3.72587 5.87967 5.09129 1.45288 13.5092 -6.53945
3 2 6.30714 4.13613 4.94234 -1.71375 -17.6023 7.30014
2 1 5.66275 5.03908 4.97376 -0.685529 -0.606891 -3.12881
4 2 6.20578 5.98279 4.9323 13.4655 6.79568 -12.3007
ITEM: TIMESTEP
53500
ITEM: NUMBER OF ATOMS
6
ITEM: BOX BOUNDS pp pp pp
0.0000000000000000e+00 1.0000000000000000e+01
0.0000000000000000e+00 1.0000000000000000e+01
0.0000000000000000e+00 1.0000000000000000e+01
ITEM: ATOMS id type x y z vx vy vz
5 2 4.04816 4.92959 6.22749 16.8786 19.5223 -5.8668
1 1 4.42533 5.23826 5.2319 0.54296 2.71008 1.50539
6 2 3.79557 5.98427 4.72601 1.05123 -3.99594 5.92181
3 2 6.18801 4.02795 5.30082 -5.06235 4.62715 -2.8269
2 1 5.57754 4.76058 4.76687 -0.441501 -3.10471 -1.93344
4 2 5.93642 5.07157 3.76217 -14.0765 -15.4511 7.87253
ITEM: TIMESTEP
53600
ITEM: NUMBER OF ATOMS
6
ITEM: BOX BOUNDS pp pp pp
0.0000000000000000e+00 1.0000000000000000e+01
0.0000000000000000e+00 1.0000000000000000e+01
0.0000000000000000e+00 1.0000000000000000e+01
ITEM: ATOMS id type x y z vx vy vz
5 2 5.04701 6.02361 6.16393 21.7928 13.5598 -3.6764
1 1 4.67869 5.50496 5.29845 1.47221 0.609588 -0.809028
6 2 3.71935 5.81586 4.94792 -1.57021 0.326981 2.05231
3 2 6.28233 4.17816 5.05578 -0.17707 -8.09182 -8.8033
2 1 5.32176 4.49582 4.70073 -1.7667 0.0502783 1.77793
4 2 4.94848 3.97275 3.84397 -16.5363 -13.658 -1.11818
ITEM: TIMESTEP
53700
ITEM: NUMBER OF ATOMS
6
ITEM: BOX BOUNDS pp pp pp
0.0000000000000000e+00 1.0000000000000000e+01
0.0000000000000000e+00 1.0000000000000000e+01
0.0000000000000000e+00 1.0000000000000000e+01
ITEM: ATOMS id type x y z vx vy vz
5 2 5.76622 6.36273 5.03045 -0.204942 3.72901 -9.47894
1 1 4.94838 5.63362 5.20265 4.08041 0.0448326 -2.75798
6 2 4.07627 5.98557 5.8159 8.2763 -0.353336 11.7322
3 2 5.92264 3.97619 4.20287 -3.99737 2.37544 -9.83297
2 1 5.0505 4.37079 4.79591 -4.56273 -0.482708 2.77065
4 2 4.25071 3.62258 4.96986 1.67338 -0.533347 7.42883
ITEM: TIMESTEP
53800
ITEM: NUMBER OF ATOMS
6
ITEM: BOX BOUNDS pp pp pp
0.0000000000000000e+00 1.0000000000000000e+01
0.0000000000000000e+00 1.0000000000000000e+01
0.0000000000000000e+00 1.0000000000000000e+01
ITEM: ATOMS id type x y z vx vy vz
5 2 5.42181 6.23374 4.18787 -3.55211 -8.91394 4.20213
1 1 5.24068 5.61994 5.06315 1.4031 -0.565758 -0.480711
6 2 5.45135 6.09008 6.00199 20.753 -3.81998 -16.0551
3 2 4.5767 3.93213 3.99008 -16.1559 5.10801 13.8918
2 1 4.75788 4.37824 4.93743 -1.90501 0.0450457 0.270739
4 2 4.56979 3.76527 5.81504 4.93569 13.8308 0.46316
ITEM: TIMESTEP
53900
ITEM: NUMBER OF ATOMS
6
ITEM: BOX BOUNDS pp pp pp
0.0000000000000000e+00 1.0000000000000000e+01
0.0000000000000000e+00 1.0000000000000000e+01
0.0000000000000000e+00 1.0000000000000000e+01
ITEM: ATOMS id type x y z vx vy vz
5 2 5.20354 6.30908 4.16377 -5.41984 10.2851 -6.29752
1 1 5.44269 5.4566 4.79608 -0.154708 -3.74095 -2.46109
6 2 6.47922 5.41042 5.1701 12.1386 -13.4018 -6.65974
3 2 3.51861 4.58031 4.82171 -11.884 8.05092 7.39746
2 1 4.55626 4.54226 5.20302 0.503736 4.71428 2.43206
4 2 4.81355 3.71335 5.85703 1.0062 -16.5325 5.9058
ITEM: TIMESTEP
54000
ITEM: NUMBER OF ATOMS
6
ITEM: BOX BOUNDS pp pp pp
0.0000000000000000e+00 1.0000000000000000e+01
0.0000000000000000e+00 1.0000000000000000e+01
0.0000000000000000e+00 1.0000000000000000e+01
ITEM: ATOMS id type x y z vx vy vz
6 2 6.10968 4.50435 4.00992 -14.2349 -3.84662 0.7734
5 2 5.55651 6.28373 4.34704 8.49876 -16.0861 3.62174
1 1 5.45459 5.19863 4.55085 -1.90974 -0.96572 -2.62144
2 1 4.54691 4.80109 5.44481 2.0269 0.496243 2.71353
4 2 4.43144 3.72458 5.7002 -10.8764 18.9028 -6.03941
3 2 3.88687 5.49033 5.99645 15.2164 6.62422 0.546935
ITEM: TIMESTEP
54100
ITEM: NUMBER OF ATOMS
6
ITEM: BOX BOUNDS pp pp pp
0.0000000000000000e+00 1.0000000000000000e+01
0.0000000000000000e+00 1.0000000000000000e+01
0.0000000000000000e+00 1.0000000000000000e+01
ITEM: ATOMS id type x y z vx vy vz
6 2 4.89032 4.4259 3.58393 -3.96672 3.08161 -5.18859
5 2 6.25153 5.45335 4.23126 11.1161 -7.43634 -0.364656
1 1 5.31632 4.95958 4.40928 -4.62422 -3.64608 -0.394952
2 1 4.68305 5.04337 5.59198 4.16443 4.02704 1.36598
4 2 3.75598 4.52562 5.75426 -11.0783 6.18792 -8.09531
3 2 5.11219 5.55964 6.41737 9.40775 -6.3728 2.07765
ITEM: TIMESTEP
54200
ITEM: NUMBER OF ATOMS
6
ITEM: BOX BOUNDS pp pp pp
0.0000000000000000e+00 1.0000000000000000e+01
0.0000000000000000e+00 1.0000000000000000e+01
0.0000000000000000e+00 1.0000000000000000e+01
ITEM: ATOMS id type x y z vx vy vz
6 2 4.34389 4.95986 3.5803 -6.73115 8.69592 -0.415115
5 2 5.91618 4.05447 4.12323 -8.74344 -8.07543 2.37696
1 1 5.07771 4.72571 4.39937 -2.22633 -3.22365 1.2577
2 1 4.92184 5.27508 5.60368 2.55218 3.23933 -2.04119
4 2 4.08105 5.94706 5.85151 8.4504 10.9153 4.7288
3 2 5.6668 5.02877 6.41046 3.14133 -11.7226 2.64549
ITEM: TIMESTEP
54300
ITEM: NUMBER OF ATOMS
6
ITEM: BOX BOUNDS pp pp pp
0.0000000000000000e+00 1.0000000000000000e+01
0.0000000000000000e+00 1.0000000000000000e+01
0.0000000000000000e+00 1.0000000000000000e+01
ITEM: ATOMS id type x y z vx vy vz
6 2 4.4541 5.04186 3.56497 6.5988 -1.92681 11.7633
5 2 4.56903 3.57153 4.68558 -10.9481 10.0095 5.47962
1 1 4.74173 4.62894 4.50353 -4.35533 -1.13749 1.01147
2 1 5.25567 5.36992 5.49471 4.57322 0.979327 -1.47964
4 2 5.4632 6.42633 5.32783 10.216 -12.7509 -4.76368
3 2 5.54711 4.97344 6.44452 -8.46312 6.55287 -6.90052
ITEM: TIMESTEP
54400
ITEM: NUMBER OF ATOMS
6
ITEM: BOX BOUNDS pp pp pp
0.0000000000000000e+00 1.0000000000000000e+01
0.0000000000000000e+00 1.0000000000000000e+01
0.0000000000000000e+00 1.0000000000000000e+01
ITEM: ATOMS id type x y z vx vy vz
6 2 4.46989 4.49261 3.63679 -9.61175 -10.105 -7.34537
5 2 3.57806 4.45121 5.27913 -16.6036 14.1361 14.0996
1 1 4.47038 4.7086 4.71982 0.534708 1.17655 1.29451
2 1 5.52825 5.29387 5.28128 0.21828 -0.536068 -0.959189
4 2 6.43103 5.51267 4.71606 13.8585 -17.5572 -17.9203
3 2 5.53977 5.51361 6.35676 3.38417 5.89399 7.17046
ITEM: TIMESTEP
54500
ITEM: NUMBER OF ATOMS
6
ITEM: BOX BOUNDS pp pp pp
0.0000000000000000e+00 1.0000000000000000e+01
0.0000000000000000e+00 1.0000000000000000e+01
0.0000000000000000e+00 1.0000000000000000e+01
ITEM: ATOMS id type x y z vx vy vz
6 2 3.95117 3.9194 4.59172 4.06078 2.09924 14.2874
5 2 3.58572 5.64268 5.22989 10.3685 -1.71624 -11.5735
1 1 4.34952 4.88746 4.93416 -2.99225 3.60323 3.72275
2 1 5.65446 5.11168 5.06496 2.5175 -3.33416 -3.92022
4 2 6.40928 4.34763 4.78605 -7.3414 2.38313 10.5272
3 2 6.00891 6.10017 5.40465 -1.43065 -5.97242 -10.888
ITEM: TIMESTEP
54600
ITEM: NUMBER OF ATOMS
6
ITEM: BOX BOUNDS pp pp pp
0.0000000000000000e+00 1.0000000000000000e+01
0.0000000000000000e+00 1.0000000000000000e+01
0.0000000000000000e+00 1.0000000000000000e+01
ITEM: ATOMS id type x y z vx vy vz
6 2 3.85732 4.54819 5.91525 7.46391 14.7288 14.4009
5 2 3.85215 5.95832 4.74716 0.726877 10.2389 -7.33586
1 1 4.36868 5.12499 5.18131 0.15208 1.07502 2.31687
2 1 5.62969 4.87718 4.81982 -0.941326 -1.39269 -2.38326
4 2 6.14714 4.04126 5.24646 1.37006 -6.89548 3.91496
3 2 6.16526 5.42595 4.07955 -0.156119 -14.2868 -10.1889
ITEM: TIMESTEP
54700
ITEM: NUMBER OF ATOMS
6
ITEM: BOX BOUNDS pp pp pp
0.0000000000000000e+00 1.0000000000000000e+01
0.0000000000000000e+00 1.0000000000000000e+01
0.0000000000000000e+00 1.0000000000000000e+01
ITEM: ATOMS id type x y z vx vy vz
6 2 4.7095 5.69362 6.37277 8.61968 19.9759 3.83955
5 2 3.69243 5.83527 4.7702 -1.49618 -0.00361884 3.08466
1 1 4.57484 5.42049 5.28673 2.56301 1.79296 0.70905
2 1 5.42579 4.58194 4.7135 -1.97555 -2.30238 -1.02301
4 2 6.30683 4.14271 5.21872 -0.172585 -1.31653 1.25888
3 2 5.28617 4.29897 3.63741 -13.9511 -12.5855 -4.44194
ITEM: TIMESTEP
54800
ITEM: NUMBER OF ATOMS
6
ITEM: BOX BOUNDS pp pp pp
0.0000000000000000e+00 1.0000000000000000e+01
0.0000000000000000e+00 1.0000000000000000e+01
0.0000000000000000e+00 1.0000000000000000e+01
ITEM: ATOMS id type x y z vx vy vz
6 2 5.59489 6.34116 5.44843 0.79887 -10.5468 -15.8499
5 2 3.83379 5.87183 5.52125 19.3805 5.39993 11.9778
1 1 4.85347 5.60031 5.242 0.24494 2.11648 -0.816239
2 1 5.14717 4.39751 4.7549 -0.798834 -1.97437 0.594519
4 2 6.17731 4.14583 4.51274 -14.8546 -6.11895 -8.45718
3 2 4.38889 3.66681 4.55633 1.2754 9.57246 14.9713
ITEM: TIMESTEP
54900
ITEM: NUMBER OF ATOMS
6
ITEM: BOX BOUNDS pp pp pp