ITEM: TIMESTEP
49600
ITEM: NUMBER OF ATOMS
6
ITEM: BOX BOUNDS pp pp pp
0.0000000000000000e+00 1.0000000000000000e+01
0.0000000000000000e+00 1.0000000000000000e+01
0.0000000000000000e+00 1.0000000000000000e+01
ITEM: ATOMS id type x y z vx vy vz
1 1 4.84946 4.65077 4.4399 -6.64153 -0.16498 2.52547
6 2 4.28056 3.75911 4.51007 -15.852 7.21209 15.0415
5 2 5.08238 5.00227 3.47521 14.3244 -5.91607 0.584277
4 2 4.89306 5.04346 6.56448 -11.6926 3.10217 12.9546
2 1 5.15423 5.3444 5.55495 5.72112 -0.488587 -4.42895
3 2 5.70244 6.25233 5.51343 24.1879 3.38977 -5.89842
ITEM: TIMESTEP
49700
ITEM: NUMBER OF ATOMS
6
ITEM: BOX BOUNDS pp pp pp
0.0000000000000000e+00 1.0000000000000000e+01
0.0000000000000000e+00 1.0000000000000000e+01
0.0000000000000000e+00 1.0000000000000000e+01
ITEM: ATOMS id type x y z vx vy vz
1 1 4.46278 4.70691 4.73871 -0.0753084 0.777247 5.71881
6 2 3.48012 5.2428 4.66703 -3.86233 24.5598 -6.97097
5 2 4.51584 3.71338 4.22229 -14.9415 -9.7749 10.8272
4 2 5.49534 6.30751 5.73295 3.93112 3.87616 -17.3871
2 1 5.53379 5.29049 5.26592 2.258 -0.680492 -4.36947
3 2 6.55201 4.76688 5.32429 -11.1364 -19.814 -2.54804
ITEM: TIMESTEP
49800
ITEM: NUMBER OF ATOMS
6
ITEM: BOX BOUNDS pp pp pp
0.0000000000000000e+00 1.0000000000000000e+01
0.0000000000000000e+00 1.0000000000000000e+01
0.0000000000000000e+00 1.0000000000000000e+01
ITEM: ATOMS id type x y z vx vy vz
1 1 4.3486 5.04668 5.1191 0.080357 7.39459 2.80715
6 2 3.62924 5.45359 4.41984 15.4793 -20.0345 6.31572
5 2 3.92112 4.73492 6.07589 20.9647 14.5142 1.05445
4 2 6.06092 5.25115 3.93474 -19.7893 -22.3666 5.44657
2 1 5.65804 4.95594 4.87929 -0.772153 -5.69992 -3.36726
3 2 6.31204 4.52868 5.59058 -8.41114 7.69314 -6.14239
ITEM: TIMESTEP
49900
ITEM: NUMBER OF ATOMS
6
ITEM: BOX BOUNDS pp pp pp
0.0000000000000000e+00 1.0000000000000000e+01
0.0000000000000000e+00 1.0000000000000000e+01
0.0000000000000000e+00 1.0000000000000000e+01
ITEM: ATOMS id type x y z vx vy vz
1 1 4.60413 5.45436 5.28545 5.43514 1.72014 0.144294
6 2 3.52934 5.26646 5.35257 -6.89036 -11.2113 13.0083
5 2 4.97663 6.4104 5.57967 21.6648 14.812 -16.9903
4 2 5.05187 3.56665 4.36486 -18.333 -29.9533 13.9206
2 1 5.39349 4.54833 4.72079 -6.22838 0.433396 -0.066445
3 2 6.47297 4.72405 4.63025 13.011 0.69095 -10.8663
ITEM: TIMESTEP
50000
ITEM: NUMBER OF ATOMS
6
ITEM: BOX BOUNDS pp pp pp
0.0000000000000000e+00 1.0000000000000000e+01
0.0000000000000000e+00 1.0000000000000000e+01
0.0000000000000000e+00 1.0000000000000000e+01
ITEM: ATOMS id type x y z vx vy vz
2 1 4.95476 4.3756 4.79577 -6.54199 -1.66615 3.56813
3 2 4.73025 4.07438 3.7356 -14.2997 17.2611 17.3122
5 2 4.94185 6.4656 4.45589 -5.54632 -7.26618 4.3102
4 2 5.01902 3.54002 5.54361 8.84499 16.2574 -4.21748
1 1 5.05124 5.6265 5.20488 5.91529 -0.56904 -4.28648
6 2 5.23969 5.89457 6.25896 18.4688 0.382371 -8.84508
ITEM: TIMESTEP
50100
ITEM: NUMBER OF ATOMS
6
ITEM: BOX BOUNDS pp pp pp
0.0000000000000000e+00 1.0000000000000000e+01
0.0000000000000000e+00 1.0000000000000000e+01
0.0000000000000000e+00 1.0000000000000000e+01
ITEM: ATOMS id type x y z vx vy vz
2 1 4.58121 4.50646 5.16223 -2.69328 4.63515 2.94488
3 2 3.59195 4.72392 5.44137 4.57508 9.80966 26.4524
5 2 5.09062 6.50054 4.79022 -0.973311 -0.88379 9.18729
4 2 4.94043 3.52758 5.24078 -1.40993 4.56158 -3.15131
1 1 5.41411 5.48764 4.8348 3.5518 -5.17545 -4.25916
6 2 6.43521 5.31789 4.56474 -12.4221 -7.04927 -16.8272
ITEM: TIMESTEP
50200
ITEM: NUMBER OF ATOMS
6
ITEM: BOX BOUNDS pp pp pp
0.0000000000000000e+00 1.0000000000000000e+01
0.0000000000000000e+00 1.0000000000000000e+01
0.0000000000000000e+00 1.0000000000000000e+01
ITEM: ATOMS id type x y z vx vy vz
2 1 4.57314 4.85471 5.47739 2.1169 6.44526 -0.0649223
3 2 4.83583 5.0643 6.54538 16.3434 -9.77921 18.634
5 2 6.42801 5.57251 4.71516 9.27176 -16.0422 -3.19696
4 2 3.55402 4.40946 5.273 -18.6944 8.26536 7.56556
1 1 5.43263 5.14768 4.52201 -0.929054 -4.83396 -0.8997
6 2 5.11576 4.92484 3.47539 -21.0752 -1.64434 -11.5081
ITEM: TIMESTEP
50300
ITEM: NUMBER OF ATOMS
6
ITEM: BOX BOUNDS pp pp pp
0.0000000000000000e+00 1.0000000000000000e+01
0.0000000000000000e+00 1.0000000000000000e+01
0.0000000000000000e+00 1.0000000000000000e+01
ITEM: ATOMS id type x y z vx vy vz
2 1 4.8904 5.25048 5.59963 4.78084 4.78995 1.77303
3 2 5.11949 4.6917 6.52455 -10.1948 8.14697 -26.606
5 2 5.45015 3.70797 4.30688 -26.9567 2.74883 -6.08219
4 2 4.58959 6.29579 5.70646 27.9003 -10.576 -2.70496
1 1 5.10455 4.7478 4.39661 -4.21429 -3.67208 0.37684
6 2 4.90337 5.32467 3.50868 2.50014 -13.6403 9.77509
ITEM: TIMESTEP
50400
ITEM: NUMBER OF ATOMS
6
ITEM: BOX BOUNDS pp pp pp
0.0000000000000000e+00 1.0000000000000000e+01
0.0000000000000000e+00 1.0000000000000000e+01
0.0000000000000000e+00 1.0000000000000000e+01
ITEM: ATOMS id type x y z vx vy vz
2 1 5.36445 5.34519 5.4398 2.25083 0.390002 -3.91631
3 2 4.92888 5.64325 6.35601 6.36075 21.7689 16.9196
5 2 3.61535 4.39595 4.77284 -24.4776 16.5526 3.11023
4 2 6.37872 5.54875 5.22222 15.611 -25.0839 -5.55809
1 1 4.63805 4.66238 4.5629 -1.40456 -0.185241 3.13276
6 2 5.04961 4.32135 3.61855 -7.57832 -15.6775 -5.13495
ITEM: TIMESTEP
50500
ITEM: NUMBER OF ATOMS
6
ITEM: BOX BOUNDS pp pp pp
0.0000000000000000e+00 1.0000000000000000e+01
0.0000000000000000e+00 1.0000000000000000e+01
0.0000000000000000e+00 1.0000000000000000e+01
ITEM: ATOMS id type x y z vx vy vz
2 1 5.63316 5.16412 5.08144 1.42859 -3.89368 -4.79299
3 2 6.01053 6.16239 4.7201 11.244 -10.6877 -16.0283
5 2 3.61666 5.56998 4.53652 6.54785 -2.65528 1.80341
4 2 6.39922 4.43199 5.50992 11.6099 -0.612873 10.0853
1 1 4.36457 4.83563 4.91462 -3.64587 3.78457 3.3934
6 2 4.00309 3.83819 5.28221 -2.98049 15.2561 20.8173
ITEM: TIMESTEP
50600
ITEM: NUMBER OF ATOMS
6
ITEM: BOX BOUNDS pp pp pp
0.0000000000000000e+00 1.0000000000000000e+01
0.0000000000000000e+00 1.0000000000000000e+01
0.0000000000000000e+00 1.0000000000000000e+01
ITEM: ATOMS id type x y z vx vy vz
2 1 5.56035 4.73152 4.76159 1.00604 -4.29194 -2.74973
3 2 5.61473 4.26247 3.78327 -13.3034 -14.3442 20.7197
5 2 3.57743 5.26859 4.61357 -3.88566 8.65511 16.144
4 2 6.45277 4.71786 5.34258 -12.9264 -1.72928 -21.0129
1 1 4.4381 5.27331 5.24302 0.781886 2.51622 2.4235
6 2 4.37595 5.69314 6.20752 8.81045 28.578 -11.9634
ITEM: TIMESTEP
50700
ITEM: NUMBER OF ATOMS
6
ITEM: BOX BOUNDS pp pp pp
0.0000000000000000e+00 1.0000000000000000e+01
0.0000000000000000e+00 1.0000000000000000e+01
0.0000000000000000e+00 1.0000000000000000e+01
ITEM: ATOMS id type x y z vx vy vz
2 1 5.21035 4.42384 4.73156 -4.78995 -2.53906 0.875549
3 2 4.84902 3.48425 5.10968 -5.28741 -23.4103 14.3635
5 2 4.12384 5.62486 6.15688 6.65384 11.7928 26.0884
4 2 5.87437 4.42033 3.86424 -8.09945 -8.38092 -21.8497
1 1 4.78659 5.56908 5.26335 5.79507 2.70877 -1.34682
6 2 5.19164 6.55455 4.93165 -5.24399 17.9761 -12.9865
ITEM: TIMESTEP
50800
ITEM: NUMBER OF ATOMS
6
ITEM: BOX BOUNDS pp pp pp
0.0000000000000000e+00 1.0000000000000000e+01
0.0000000000000000e+00 1.0000000000000000e+01
0.0000000000000000e+00 1.0000000000000000e+01
ITEM: ATOMS id type x y z vx vy vz
2 1 4.72117 4.397 4.95625 -4.71257 -0.971633 2.2269
3 2 5.16612 3.51534 5.48971 -13.0544 6.63964 -6.59633
5 2 6.19647 5.79506 5.62704 0.436207 -10.008 -38.0872
4 2 3.80113 4.18423 4.3543 -11.9967 -8.72251 24.1231
1 1 5.27722 5.60551 5.0461 6.13695 2.93081 -1.07898
6 2 4.85781 6.47507 4.50271 7.64184 -11.2549 6.88174
ITEM: TIMESTEP
50900
ITEM: NUMBER OF ATOMS
6
ITEM: BOX BOUNDS pp pp pp
0.0000000000000000e+00 1.0000000000000000e+01
0.0000000000000000e+00 1.0000000000000000e+01
0.0000000000000000e+00 1.0000000000000000e+01
ITEM: ATOMS id type x y z vx vy vz
2 1 4.54983 4.65081 5.35046 -1.71036 1.68021 4.31101
3 2 4.2181 3.66386 5.11038 -19.7994 6.44201 5.03095
5 2 5.95716 4.89312 3.82407 -9.77646 -0.65175 -27.808
4 2 4.02739 5.08168 6.16495 14.0105 4.36759 7.15975
1 1 5.45448 5.3525 4.64842 0.882752 -2.78252 -2.53014
6 2 5.74831 6.32143 4.91566 25.4273 2.97738 -5.60374
ITEM: TIMESTEP
51000
ITEM: NUMBER OF ATOMS
6
ITEM: BOX BOUNDS pp pp pp
0.0000000000000000e+00 1.0000000000000000e+01
0.0000000000000000e+00 1.0000000000000000e+01
0.0000000000000000e+00 1.0000000000000000e+01
ITEM: ATOMS id type x y z vx vy vz
1 1 5.31386 4.93728 4.4202 -1.46117 -4.10332 -1.10588
6 2 6.3773 4.50388 4.35856 -5.76116 -26.1197 -16.4349
5 2 4.89198 5.16253 3.40603 -3.51114 6.44124 -9.36727
4 2 5.15713 4.8179 6.56354 10.932 0.382193 6.53212
2 1 4.68075 5.06828 5.58375 1.47956 3.35504 1.87656
3 2 3.64022 5.449 5.62652 -1.87887 28.2129 10.0866
ITEM: TIMESTEP
51100
ITEM: NUMBER OF ATOMS
6
ITEM: BOX BOUNDS pp pp pp
0.0000000000000000e+00 1.0000000000000000e+01
0.0000000000000000e+00 1.0000000000000000e+01
0.0000000000000000e+00 1.0000000000000000e+01
ITEM: ATOMS id type x y z vx vy vz
1 1 4.85267 4.65589 4.44371 -3.95048 -1.06892 -3.18233
6 2 4.38708 3.68833 4.45407 -18.1227 24.1945 14.8127
5 2 5.09997 5.01531 3.45035 -4.36047 -21.1443 21.4252
4 2 4.9159 4.98436 6.5612 7.95363 22.863 -2.29476
2 1 5.15036 5.34101 5.55718 3.89005 0.868283 0.643983
3 2 5.56322 6.34852 5.52553 15.2497 -23.5225 -3.69596
ITEM: TIMESTEP
51200
ITEM: NUMBER OF ATOMS
6
ITEM: BOX BOUNDS pp pp pp
0.0000000000000000e+00 1.0000000000000000e+01
0.0000000000000000e+00 1.0000000000000000e+01
0.0000000000000000e+00 1.0000000000000000e+01
ITEM: ATOMS id type x y z vx vy vz
1 1 4.46276 4.71276 4.71103 -1.46374 3.75087 4.25723
6 2 3.47676 5.13682 4.7297 -13.7431 17.2324 -2.61759
5 2 4.54984 3.74625 4.23146 -13.3951 -31.6322 6.43464
4 2 5.47215 6.23272 5.79445 8.83397 19.4687 -18.6402
2 1 5.53278 5.28474 5.28806 1.88755 -2.9128 -2.92024
3 2 6.55669 4.91362 5.25701 13.2541 -15.0555 -1.10844
ITEM: TIMESTEP
51300
ITEM: NUMBER OF ATOMS
6
ITEM: BOX BOUNDS pp pp pp
0.0000000000000000e+00 1.0000000000000000e+01
0.0000000000000000e+00 1.0000000000000000e+01
0.0000000000000000e+00 1.0000000000000000e+01
ITEM: ATOMS id type x y z vx vy vz
1 1 4.3478 5.03529 5.12342 0.783602 4.12211 2.3686
6 2 3.59785 5.47653 4.37944 -2.45527 -3.45879 8.04812
5 2 3.82405 4.62483 6.03828 9.51299 23.5386 3.39635
4 2 6.15705 5.42061 3.97598 -14.2229 -26.8636 -9.92553
2 1 5.65842 4.9626 4.87679 0.0896891 -3.57355 -2.32546
3 2 6.34933 4.5028 5.60563 -3.24107 0.247181 -2.03304
ITEM: TIMESTEP
51400
ITEM: NUMBER OF ATOMS
6
ITEM: BOX BOUNDS pp pp pp
0.0000000000000000e+00 1.0000000000000000e+01
0.0000000000000000e+00 1.0000000000000000e+01
0.0000000000000000e+00 1.0000000000000000e+01
ITEM: ATOMS id type x y z vx vy vz
1 1 4.58251 5.45404 5.27323 3.3722 5.04211 -0.120028
6 2 3.54101 5.32644 5.34059 19.68 -6.7571 12.7304
5 2 4.92849 6.35412 5.72118 9.92075 -4.82415 -15.6149
4 2 5.06325 3.66733 4.23539 -7.13315 -14.8746 11.2939
2 1 5.41707 4.54241 4.7289 -4.06187 -2.75289 1.33011
3 2 6.47462 4.69408 4.6792 -14.2494 -0.822691 -22.8288
ITEM: TIMESTEP
51500
ITEM: NUMBER OF ATOMS
6
ITEM: BOX BOUNDS pp pp pp
0.0000000000000000e+00 1.0000000000000000e+01
0.0000000000000000e+00 1.0000000000000000e+01
0.0000000000000000e+00 1.0000000000000000e+01
ITEM: ATOMS id type x y z vx vy vz
1 1 5.04408 5.63751 5.21005 3.80662 -3.12877 -2.0668
6 2 5.09978 5.90537 6.283 23.591 8.92988 17.1444
5 2 4.97857 6.47234 4.49513 1.65576 7.94179 -23.5001
4 2 4.99967 3.51053 5.48897 5.01692 3.86083 10.7428
2 1 4.95826 4.36822 4.79175 -3.62469 1.85965 2.61508
3 2 4.89645 4.04306 3.71326 -32.4316 -5.6096 -10.9205
ITEM: TIMESTEP
51600
ITEM: NUMBER OF ATOMS
6
ITEM: BOX BOUNDS pp pp pp
0.0000000000000000e+00 1.0000000000000000e+01
0.0000000000000000e+00 1.0000000000000000e+01
0.0000000000000000e+00 1.0000000000000000e+01
ITEM: ATOMS id type x y z vx vy vz
1 1 5.40792 5.50137 4.83579 1.61948 -2.86626 -5.63537
6 2 6.50752 5.34818 4.72069 -18.5698 -7.88841 -9.73285
5 2 5.07328 6.56156 4.72188 13.0165 -15.5894 9.22537
4 2 4.91907 3.44534 5.25565 -5.97288 16.4743 -13.5905
2 1 4.58961 4.49545 5.1669 -2.63407 1.98741 5.27073
3 2 3.53196 4.6824 5.27146 23.6162 17.4761 18.443
ITEM: TIMESTEP
51700
ITEM: NUMBER OF ATOMS
6
ITEM: BOX BOUNDS pp pp pp
0.0000000000000000e+00 1.0000000000000000e+01
0.0000000000000000e+00 1.0000000000000000e+01
0.0000000000000000e+00 1.0000000000000000e+01
ITEM: ATOMS id type x y z vx vy vz
1 1 5.43669 5.14958 4.51279 -1.6359 -2.62255 -0.69893
6 2 5.25991 4.90446 3.49279 -25.4689 -11.014 -1.36191
5 2 6.31108 5.70694 4.70585 11.5178 -18.8669 1.72498
4 2 3.67437 4.31704 5.2526 -29.405 16.0948 0.32236
2 1 4.5633 4.84841 5.48921 3.67672 3.63669 -0.171281
3 2 4.75713 5.09521 6.52662 19.0375 1.70158 9.68408
ITEM: TIMESTEP
51800
ITEM: NUMBER OF ATOMS
6
ITEM: BOX BOUNDS pp pp pp
0.0000000000000000e+00 1.0000000000000000e+01
0.0000000000000000e+00 1.0000000000000000e+01
0.0000000000000000e+00 1.0000000000000000e+01
ITEM: ATOMS id type x y z vx vy vz
1 1 5.1105 4.74495 4.39278 -6.72999 -1.40599 0.980943
6 2 4.85358 5.33014 3.48348 0.404394 5.77169 -5.16974
5 2 5.65843 3.76024 4.28933 -11.9649 -15.6872 15.0945
4 2 4.38584 6.26408 5.75226 24.3231 3.88942 -10.6953
2 1 4.88851 5.25117 5.60116 6.03787 2.37079 -0.984625
3 2 5.11638 4.69133 6.54892 -4.51514 -5.47046 0.814442
ITEM: TIMESTEP
51900
ITEM: NUMBER OF ATOMS
6
ITEM: BOX BOUNDS pp pp pp
0.0000000000000000e+00 1.0000000000000000e+01
0.0000000000000000e+00 1.0000000000000000e+01
0.0000000000000000e+00 1.0000000000000000e+01
ITEM: ATOMS id type x y z vx vy vz
1 1 4.63885 4.65101 4.56039 -5.04919 1.61799 2.24688
6 2 5.03023 4.48392 3.55445 -4.11229 -14.1899 25.421
5 2 3.66105 4.27332 4.78439 4.33839 17.601 2.55577
4 2 6.347 5.69472 5.23556 -0.0707775 -22.0087 -13.9362
2 1 5.36313 5.34878 5.44214 5.06106 -0.690979 -0.957785
3 2 4.9405 5.55013 6.39715 -0.29676 7.55124 -29.4015
ITEM: TIMESTEP
52000
ITEM: NUMBER OF ATOMS
6
ITEM: BOX BOUNDS pp pp pp
0.0000000000000000e+00 1.0000000000000000e+01
0.0000000000000000e+00 1.0000000000000000e+01
0.0000000000000000e+00 1.0000000000000000e+01
ITEM: ATOMS id type x y z vx vy vz
1 1 4.36596 4.82226 4.92376 -0.789452 5.71 4.04867
5 2 3.63482 5.54434 4.56282 1.64472 13.0801 -9.06282
3 2 5.98723 6.20949 4.90263 10.4109 16.491 -22.7087
6 2 4.0218 3.80409 5.04393 -4.28388 -15.8008 27.5315
4 2 6.32826 4.42552 5.45894 9.41333 -14.4736 9.97281
2 1 5.63658 5.17909 5.07905 -0.65272 -5.65098 -4.52977
ITEM: TIMESTEP
52100
ITEM: NUMBER OF ATOMS
6
ITEM: BOX BOUNDS pp pp pp
0.0000000000000000e+00 1.0000000000000000e+01
0.0000000000000000e+00 1.0000000000000000e+01
0.0000000000000000e+00 1.0000000000000000e+01
ITEM: ATOMS id type x y z vx vy vz
1 1 4.43424 5.25606 5.23539 2.896 6.86626 4.22987
5 2 3.56243 5.35632 4.54163 2.18594 -14.873 3.30042
3 2 5.66181 4.39374 3.71211 -8.44007 -8.66971 17.398
6 2 4.35968 5.56113 6.30309 11.4231 13.0847 -13.8877
4 2 6.4705 4.63375 5.41735 -11.9772 7.42304 -13.0625
2 1 5.56139 4.74853 4.76693 -2.32465 -6.61157 -3.70522
ITEM: TIMESTEP
52200
ITEM: NUMBER OF ATOMS
6
ITEM: BOX BOUNDS pp pp pp
0.0000000000000000e+00 1.0000000000000000e+01
0.0000000000000000e+00 1.0000000000000000e+01
0.0000000000000000e+00 1.0000000000000000e+01
ITEM: ATOMS id type x y z vx vy vz
1 1 4.78806 5.56267 5.28032 3.57492 1.38377 -0.239469
5 2 3.98743 5.58577 5.96535 24.7101 15.1534 14.2503
3 2 4.8097 3.51813 5.05001 -6.25694 0.397574 17.6716
6 2 5.22284 6.4932 4.95242 -2.26518 3.06341 -15.0158
4 2 5.99795 4.42296 4.03319 -11.6469 -1.9647 -9.68769
2 1 5.21064 4.43561 4.71975 -3.95601 -2.78102 -0.366305
ITEM: TIMESTEP
52300
ITEM: NUMBER OF ATOMS
6
ITEM: BOX BOUNDS pp pp pp
0.0000000000000000e+00 1.0000000000000000e+01
0.0000000000000000e+00 1.0000000000000000e+01
0.0000000000000000e+00 1.0000000000000000e+01
ITEM: ATOMS id type x y z vx vy vz
1 1 5.25738 5.60246 5.05042 5.54728 -1.73708 -4.82875
5 2 6.08935 5.80414 5.78253 22.1517 -4.41887 -9.76609
3 2 5.11593 3.55899 5.58798 5.75777 -10.8405 3.45137
6 2 4.8916 6.455 4.46766 -10.5518 9.8138 3.27977
4 2 3.89577 4.22853 4.21326 -23.4615 -3.31202 -1.37536
2 1 4.74343 4.39359 4.94542 -5.03504 2.47202 5.19887
ITEM: TIMESTEP
52400
ITEM: NUMBER OF ATOMS
6
ITEM: BOX BOUNDS pp pp pp
0.0000000000000000e+00 1.0000000000000000e+01
0.0000000000000000e+00 1.0000000000000000e+01
0.0000000000000000e+00 1.0000000000000000e+01
ITEM: ATOMS id type x y z vx vy vz
1 1 5.46213 5.33996 4.66493 1.51652 -1.03817 -4.06598
5 2 6.03077 4.86158 3.8858 -21.4068 -1.29016 -8.03602
3 2 4.43887 3.5748 5.17582 -18.9808 23.6891 11.0969
6 2 5.58282 6.40946 4.86211 16.2996 -22.7022 -1.44685
4 2 3.93988 5.1027 6.12593 27.3083 -6.12558 -6.80798
2 1 4.53871 4.66433 5.33105 -1.78677 1.57768 4.50186
ITEM: TIMESTEP
52500
ITEM: NUMBER OF ATOMS
6
ITEM: BOX BOUNDS pp pp pp
0.0000000000000000e+00 1.0000000000000000e+01
0.0000000000000000e+00 1.0000000000000000e+01
0.0000000000000000e+00 1.0000000000000000e+01
ITEM: ATOMS id type x y z vx vy vz
1 1 5.32763 4.94723 4.4225 -5.93429 -4.98338 -1.42404
5 2 4.82762 5.09194 3.47329 3.92366 8.34917 -14.6725
3 2 3.64266 5.26258 5.59758 -11.9595 16.7768 -0.0289864
6 2 6.38166 4.6917 4.41816 11.4136 -24.9591 -11.667
4 2 5.17376 4.919 6.51731 5.82129 -13.466 15.1077
2 1 4.67041 5.05566 5.57712 5.1623 6.09944 2.36905
ITEM: TIMESTEP
52600
ITEM: NUMBER OF ATOMS
6
ITEM: BOX BOUNDS pp pp pp
0.0000000000000000e+00 1.0000000000000000e+01
0.0000000000000000e+00 1.0000000000000000e+01
0.0000000000000000e+00 1.0000000000000000e+01
ITEM: ATOMS id type x y z vx vy vz
1 1 4.87855 4.64735 4.45348 -5.52333 -2.6203 0.534941
5 2 4.98514 5.13466 3.44547 1.08422 -12.7035 3.20134
3 2 5.49798 6.43269 5.50625 18.8598 -4.10601 -1.06154
6 2 4.49815 3.59848 4.42773 -19.8504 14.6487 -0.934616
4 2 5.05707 4.83717 6.54448 -2.8821 8.63346 11.7476
2 1 5.11843 5.35237 5.55305 5.75733 2.07712 -1.62194
ITEM: TIMESTEP
52700
ITEM: NUMBER OF ATOMS
6
ITEM: BOX BOUNDS pp pp pp
0.0000000000000000e+00 1.0000000000000000e+01
0.0000000000000000e+00 1.0000000000000000e+01
0.0000000000000000e+00 1.0000000000000000e+01
ITEM: ATOMS id type x y z vx vy vz
1 1 4.47424 4.70087 4.69933 -5.64863 0.425234 4.15812
5 2 4.57904 3.84496 4.091 -11.2362 -2.53498 12.6525
3 2 6.52064 4.92791 5.1556 -1.51043 -4.23047 18.3147
6 2 3.49802 5.08685 4.8611 0.715136 11.5178 -9.89264
4 2 5.4158 6.13237 5.97084 22.3093 -11.8586 -28.5002
2 1 5.52482 5.29976 5.29423 4.78612 0.171123 -3.53496
ITEM: TIMESTEP
52800
ITEM: NUMBER OF ATOMS
6
ITEM: BOX BOUNDS pp pp pp
0.0000000000000000e+00 1.0000000000000000e+01
0.0000000000000000e+00 1.0000000000000000e+01
0.0000000000000000e+00 1.0000000000000000e+01
ITEM: ATOMS id type x y z vx vy vz
1 1 4.33616 5.00774 5.10224 1.72752 3.72504 4.57611
5 2 3.8603 4.51514 5.98334 -16.8363 14.121 22.2756
3 2 6.33343 4.41281 5.52008 3.67751 1.3461 12.7872
6 2 3.67171 5.62324 4.44574 -14.8635 6.41348 -4.47139
4 2 6.13851 5.50499 4.05338 16.2499 -7.05419 -31.3239
2 1 5.66371 4.98751 4.8977 -0.739586 -4.96927 -4.51465
ITEM: TIMESTEP
52900
ITEM: NUMBER OF ATOMS
6
ITEM: BOX BOUNDS pp pp pp
0.0000000000000000e+00 1.0000000000000000e+01
0.0000000000000000e+00 1.0000000000000000e+01
0.0000000000000000e+00 1.0000000000000000e+01
ITEM: ATOMS id type x y z vx vy vz
1 1 4.57593 5.43727 5.27955 0.770225 4.62551 3.17997
5 2 4.93841 6.30971 5.86066 -0.329024 -2.89446 -30.4037
3 2 6.54859 4.63676 4.84819 -5.81206 -7.74648 -20.706
6 2 3.48176 5.40064 5.1833 18.0929 13.1229 13.4385
4 2 5.01858 3.70297 4.15287 -4.78121 -2.81259 22.7718
2 1 5.42533 4.55849 4.71682 -1.37199 -4.59776 -1.92961
ITEM: TIMESTEP
53000
ITEM: NUMBER OF ATOMS
6
ITEM: BOX BOUNDS pp pp pp
0.0000000000000000e+00 1.0000000000000000e+01
0.0000000000000000e+00 1.0000000000000000e+01
0.0000000000000000e+00 1.0000000000000000e+01
ITEM: ATOMS id type x y z vx vy vz
2 1 4.98583 4.35525 4.79094 -5.8022 -0.47363 1.36495
3 2 5.02432 4.10267 3.76732 -25.08 -17.2698 1.09791
5 2 5.14339 6.47188 4.54666 -4.94033 9.24271 -22.1708
4 2 4.88035 3.51789 5.46496 10.3107 1.65299 -0.428258
6 2 4.99767 5.86601 6.24267 16.402 3.98101 7.39969
1 1 5.01053 5.64821 5.20739 6.07978 0.674459 -0.181551
ITEM: TIMESTEP
53100
ITEM: NUMBER OF ATOMS
6
ITEM: BOX BOUNDS pp pp pp
0.0000000000000000e+00 1.0000000000000000e+01
0.0000000000000000e+00 1.0000000000000000e+01
0.0000000000000000e+00 1.0000000000000000e+01
ITEM: ATOMS id type x y z vx vy vz
2 1 4.58799 4.49045 5.14072 -1.91922 1.62603 3.37517
3 2 3.47474 4.59597 5.17688 -2.6952 20.2736 22.4378
5 2 5.01806 6.51964 4.56262 12.459 4.85217 -2.52628
4 2 4.93327 3.46139 5.37891 -1.06946 -16.2513 0.146021
6 2 6.55437 5.38483 4.80552 6.81612 -13.7571 -23.8929
1 1 5.41385 5.51272 4.86581 0.617575 -1.21628 -3.05331
ITEM: TIMESTEP
53200
ITEM: NUMBER OF ATOMS
6
ITEM: BOX BOUNDS pp pp pp
0.0000000000000000e+00 1.0000000000000000e+01
0.0000000000000000e+00 1.0000000000000000e+01
0.0000000000000000e+00 1.0000000000000000e+01
ITEM: ATOMS id type x y z vx vy vz
2 1 4.56567 4.82482 5.49204 -0.881404 3.99744 3.95566
3 2 4.65365 5.22163 6.5096 14.3132 -5.83309 -2.70789
5 2 6.28953 5.81589 4.68787 -9.76072 -24.6661 -7.98745
4 2 3.70033 4.20851 5.28127 5.5789 26.7839 2.4453
6 2 5.39618 4.80537 3.51078 -20.118 15.9514 12.7656
1 1 5.4312 5.17084 4.50899 1.71948 -5.0243 -4.3346
ITEM: TIMESTEP
53300
ITEM: NUMBER OF ATOMS
6
ITEM: BOX BOUNDS pp pp pp
0.0000000000000000e+00 1.0000000000000000e+01
0.0000000000000000e+00 1.0000000000000000e+01
0.0000000000000000e+00 1.0000000000000000e+01
ITEM: ATOMS id type x y z vx vy vz
2 1 4.85621 5.24501 5.61059 3.25667 1.88638 -2.05397
3 2 5.21347 4.77058 6.51069 8.47637 -2.99731 9.80357
5 2 5.68909 3.84312 4.22313 -5.90932 -40.0193 7.60715
4 2 4.29647 6.16575 5.79749 21.0379 23.3994 4.04911
6 2 4.7621 5.23359 3.48545 -7.79137 15.4507 -8.97488
1 1 5.14725 4.75386 4.38815 -4.58375 -1.53672 1.00623
ITEM: TIMESTEP
53400
ITEM: NUMBER OF ATOMS
6
ITEM: BOX BOUNDS pp pp pp
0.0000000000000000e+00 1.0000000000000000e+01
0.0000000000000000e+00 1.0000000000000000e+01
0.0000000000000000e+00 1.0000000000000000e+01
ITEM: ATOMS id type x y z vx vy vz
2 1 5.34978 5.33849 5.45659 4.18029 0.904468 -2.23616
3 2 5.01741 5.51634 6.50196 -0.35726 2.85824 -16.6798
5 2 3.67937 4.13332 4.84014 -2.83065 25.7533 0.544881
4 2 6.28611 5.89081 5.21356 12.29 -21.0642 -8.54537
6 2 4.98032 4.52676 3.46624 -1.5759 -10.224 5.81813
1 1 4.65351 4.65583 4.54172 -4.81189 -0.67984 3.81907
ITEM: TIMESTEP
53500
ITEM: NUMBER OF ATOMS
6
ITEM: BOX BOUNDS pp pp pp
0.0000000000000000e+00 1.0000000000000000e+01
0.0000000000000000e+00 1.0000000000000000e+01
0.0000000000000000e+00 1.0000000000000000e+01
ITEM: ATOMS id type x y z vx vy vz
2 1 5.63781 5.18658 5.11172 0.744773 -1.40366 -3.20929
3 2 5.97309 6.20473 5.00863 7.20371 -3.08147 -25.3104
5 2 3.58664 5.50458 4.66577 15.1922 7.41125 -3.63543
4 2 6.3791 4.4534 5.30131 -14.6313 -14.3733 -2.12012
6 2 4.0413 3.8149 4.95866 -6.15543 26.693 22.8245
1 1 4.36406 4.81527 4.89394 -0.879815 0.0064288 3.90091
ITEM: TIMESTEP
53600
ITEM: NUMBER OF ATOMS
6
ITEM: BOX BOUNDS pp pp pp
0.0000000000000000e+00 1.0000000000000000e+01
0.0000000000000000e+00 1.0000000000000000e+01
0.0000000000000000e+00 1.0000000000000000e+01
ITEM: ATOMS id type x y z vx vy vz
2 1 5.57697 4.75543 4.77559 -4.12765 -1.84581 0.10102
3 2 5.71801 4.56748 3.69133 -17.8481 -26.2482 -10.3124
5 2 3.55276 5.4266 4.58934 -12.0474 -4.25258 -13.3076
4 2 6.46994 4.54857 5.43207 3.78623 -5.22538 -3.62034
6 2 4.29273 5.44558 6.31204 20.7035 21.8196 23.7442
1 1 4.42043 5.24552 5.22248 4.5813 3.01285 0.192375
ITEM: TIMESTEP
53700
ITEM: NUMBER OF ATOMS
6
ITEM: BOX BOUNDS pp pp pp
0.0000000000000000e+00 1.0000000000000000e+01
0.0000000000000000e+00 1.0000000000000000e+01
0.0000000000000000e+00 1.0000000000000000e+01
ITEM: ATOMS id type x y z vx vy vz
2 1 5.22736 4.43257 4.74055 -4.12428 -2.22088 0.297906
3 2 4.73982 3.46346 4.86604 3.77879 26.3139 19.566
5 2 3.88569 5.54332 5.95676 30.331 7.99019 5.40936
4 2 6.07484 4.42887 4.06592 -22.7363 0.762964 -6.14042
6 2 5.28465 6.53629 5.07695 3.60583 -18.1718 -14.8492
1 1 4.7741 5.56975 5.26247 2.86721 0.803025 -0.632385
ITEM: TIMESTEP
53800
ITEM: NUMBER OF ATOMS
6
ITEM: BOX BOUNDS pp pp pp
0.0000000000000000e+00 1.0000000000000000e+01
0.0000000000000000e+00 1.0000000000000000e+01
0.0000000000000000e+00 1.0000000000000000e+01
ITEM: ATOMS id type x y z vx vy vz
2 1 4.75026 4.38105 4.92885 -1.72013 3.13102 3.16486
3 2 5.05447 3.5906 5.60051 8.87164 -12.0953 19.7901
5 2 5.94572 5.85987 5.83069 23.7247 -11.7782 -13.3968
4 2 4.03107 4.18129 4.16829 -27.048 20.3458 9.43977
6 2 4.92673 6.41411 4.45312 4.43908 -0.0878965 0.579069
1 1 5.25346 5.61507 5.06689 0.881985 -2.82759 -4.54217
ITEM: TIMESTEP
53900
ITEM: NUMBER OF ATOMS
6
ITEM: BOX BOUNDS pp pp pp
0.0000000000000000e+00 1.0000000000000000e+01
0.0000000000000000e+00 1.0000000000000000e+01
0.0000000000000000e+00 1.0000000000000000e+01
ITEM: ATOMS id type x y z vx vy vz
2 1 4.5497 4.6487 5.33864 1.34091 4.91421 2.36257
3 2 4.48907 3.55083 5.15436 -13.4784 11.6565 -1.5085
5 2 6.19066 4.85938 3.99108 -7.48333 -15.9904 -15.0357
4 2 3.78683 5.14581 6.04035 14.8883 5.44958 16.0708
6 2 5.56634 6.45349 4.84511 5.91888 0.513672 11.5165
1 1 5.44774 5.35046 4.65892 -1.32794 -5.05095 -3.28931
ITEM: TIMESTEP
54000
ITEM: NUMBER OF ATOMS
6
ITEM: BOX BOUNDS pp pp pp
0.0000000000000000e+00 1.0000000000000000e+01
0.0000000000000000e+00 1.0000000000000000e+01
0.0000000000000000e+00 1.0000000000000000e+01
ITEM: ATOMS id type x y z vx vy vz
6 2 6.41718 4.83616 4.43011 -18.1482 -27.8319 -3.08456
1 1 5.34423 4.95738 4.42656 -3.14592 -1.7971 -2.51078
5 2 4.78502 5.03782 3.49785 2.82142 -7.84283 15.65
4 2 5.16736 4.97177 6.48756 0.695339 -5.78868 -12.6083
2 1 4.65926 5.04133 5.57133 2.36792 3.12037 2.39986
3 2 3.59128 5.16917 5.61145 23.9021 25.6952 1.36461
ITEM: TIMESTEP
54100
ITEM: NUMBER OF ATOMS
6
ITEM: BOX BOUNDS pp pp pp
0.0000000000000000e+00 1.0000000000000000e+01
0.0000000000000000e+00 1.0000000000000000e+01
0.0000000000000000e+00 1.0000000000000000e+01
ITEM: ATOMS id type x y z vx vy vz
6 2 4.71257 3.59258 4.46327 -25.0233 -8.52317 -3.19356
1 1 4.87583 4.65953 4.44218 -4.96622 -1.21006 4.85744
5 2 4.96508 5.1418 3.46909 2.85324 1.12709 -15.1212
4 2 5.02874 4.84374 6.53825 -8.52025 -5.18663 9.87676
2 1 5.12116 5.34126 5.56163 5.20478 0.101992 -3.19093
3 2 5.33188 6.41202 5.48579 27.8476 25.7866 -11.4203
ITEM: TIMESTEP
54200
ITEM: NUMBER OF ATOMS
6
ITEM: BOX BOUNDS pp pp pp
0.0000000000000000e+00 1.0000000000000000e+01
0.0000000000000000e+00 1.0000000000000000e+01
0.0000000000000000e+00 1.0000000000000000e+01
ITEM: ATOMS id type x y z vx vy vz
6 2 3.4341 5.00775 4.94508 7.78552 13.1117 6.22082
1 1 4.49162 4.70637 4.69615 -3.87618 1.07544 0.450757
5 2 4.64553 3.89199 3.96908 -12.4986 -8.61191 23.5062
4 2 5.32207 6.11098 6.05521 21.8774 7.84313 -22.6604
2 1 5.51247 5.29802 5.29986 3.92191 -1.8171 -1.48528
3 2 6.55199 4.93658 5.07997 -17.7093 -3.50524 5.26085
ITEM: TIMESTEP
54300
ITEM: NUMBER OF ATOMS
6
ITEM: BOX BOUNDS pp pp pp
0.0000000000000000e+00 1.0000000000000000e+01
0.0000000000000000e+00 1.0000000000000000e+01
0.0000000000000000e+00 1.0000000000000000e+01
ITEM: ATOMS id type x y z vx vy vz
6 2 3.72602 5.6104 4.47602 -7.44647 1.21377 -0.181824
1 1 4.33567 5.01294 5.09512 -0.625743 4.18692 3.41068
5 2 3.9163 4.35191 5.83488 4.35457 23.0227 15.1352
4 2 6.08468 5.60952 4.18167 2.03319 -18.9327 -12.3805
2 1 5.66066 4.98655 4.90437 0.283606 -4.96742 -3.81199
3 2 6.31921 4.43381 5.51536 5.13565 3.99678 2.20922
ITEM: TIMESTEP
54400
ITEM: NUMBER OF ATOMS
6
ITEM: BOX BOUNDS pp pp pp
0.0000000000000000e+00 1.0000000000000000e+01
0.0000000000000000e+00 1.0000000000000000e+01
0.0000000000000000e+00 1.0000000000000000e+01
ITEM: ATOMS id type x y z vx vy vz
6 2 3.49309 5.36184 5.05602 -3.81126 7.09464 23.4053
1 1 4.58283 5.43284 5.27725 2.17077 2.99448 -1.43072
5 2 4.91541 6.22549 5.98209 11.7902 24.2479 -2.5393
4 2 5.06448 3.73947 4.04308 -19.7319 -16.6971 -2.90673
2 1 5.41854 4.56743 4.72079 -2.72 -4.38077 1.24447
3 2 6.51314 4.66962 4.94387 18.2975 1.87364 -15.7399
ITEM: TIMESTEP
54500
ITEM: NUMBER OF ATOMS
6
ITEM: BOX BOUNDS pp pp pp
0.0000000000000000e+00 1.0000000000000000e+01
0.0000000000000000e+00 1.0000000000000000e+01
0.0000000000000000e+00 1.0000000000000000e+01
ITEM: ATOMS id type x y z vx vy vz
6 2 4.81864 5.87741 6.2612 27.4563 -3.1015 -4.5328
1 1 5.00926 5.63192 5.21083 5.22359 5.18067 -3.4469
5 2 5.16361 6.46998 4.55028 -9.77809 -8.95881 9.59082
4 2 4.86257 3.54251 5.50575 3.44855 7.4122 -17.4347
2 1 4.98721 4.36641 4.78497 -4.75377 -4.38166 2.51501
3 2 5.19963 4.12958 3.73454 -26.7252 -4.87289 23.4811
ITEM: TIMESTEP
54600
ITEM: NUMBER OF ATOMS
6
ITEM: BOX BOUNDS pp pp pp
0.0000000000000000e+00 1.0000000000000000e+01
0.0000000000000000e+00 1.0000000000000000e+01
0.0000000000000000e+00 1.0000000000000000e+01
ITEM: ATOMS id type x y z vx vy vz
6 2 6.48076 5.43485 4.95264 19.9464 -6.87966 -21.3964
1 1 5.41643 5.51033 4.8706 2.73673 -3.11407 -5.13579
5 2 4.97878 6.47035 4.5659 0.690309 16.8518 5.39301
4 2 4.97021 3.545 5.41052 -7.19798 -20.2014 -3.1961
2 1 4.58709 4.49145 5.13236 -2.52279 3.9523 5.65121
3 2 3.53065 4.52817 5.03746 -15.988 0.240905 13.0577
ITEM: TIMESTEP
54700
ITEM: NUMBER OF ATOMS
6
ITEM: BOX BOUNDS pp pp pp
0.0000000000000000e+00 1.0000000000000000e+01
0.0000000000000000e+00 1.0000000000000000e+01
0.0000000000000000e+00 1.0000000000000000e+01
ITEM: ATOMS id type x y z vx vy vz
6 2 5.38721 4.74091 3.48581 -5.72094 15.0257 1.22901
1 1 5.44009 5.17459 4.5315 -1.01034 -3.93226 -4.61422
5 2 6.22174 5.95096 4.69265 14.4939 -22.873 -13.9964
4 2 3.77239 4.02606 5.32873 -12.3789 16.4053 2.04061
2 1 4.55987 4.82669 5.46709 0.77788 2.90929 4.41022
3 2 4.62155 5.26636 6.51145 6.37599 3.63179 13.1577
ITEM: TIMESTEP
54800
ITEM: NUMBER OF ATOMS
6
ITEM: BOX BOUNDS pp pp pp
0.0000000000000000e+00 1.0000000000000000e+01
0.0000000000000000e+00 1.0000000000000000e+01
0.0000000000000000e+00 1.0000000000000000e+01
ITEM: ATOMS id type x y z vx vy vz
6 2 4.78245 5.20488 3.49819 10.7888 7.03063 -1.3347
1 1 5.14926 4.76416 4.38912 -4.64164 -6.32895 -0.559206
5 2 5.79556 3.94205 4.22556 -22.8751 -4.86534 -6.72504
4 2 4.14895 6.04875 5.74356 23.0221 1.76369 12.6426
2 1 4.85292 5.2371 5.61408 4.79228 5.22312 1.36532
3 2 5.2494 4.78893 6.49628 -12.7309 9.24816 -14.1887
ITEM: TIMESTEP
54900
ITEM: NUMBER OF ATOMS
6
ITEM: BOX BOUNDS pp pp pp
0.0000000000000000e+00 1.0000000000000000e+01