ITEM: TIMESTEP
49600
ITEM: NUMBER OF ATOMS
6
ITEM: BOX BOUNDS pp pp pp
0.0000000000000000e+00 1.0000000000000000e+01
0.0000000000000000e+00 1.0000000000000000e+01
0.0000000000000000e+00 1.0000000000000000e+01
ITEM: ATOMS id type x y z vx vy vz
1 1 4.85815 4.65239 4.43709 -6.32427 -0.21974 2.37094
6 2 4.31659 3.74237 4.49821 -15.2082 6.16941 14.4933
5 2 5.07817 5.02027 3.47447 13.8016 -4.90915 0.246157
4 2 4.89654 5.02314 6.56478 -11.1414 1.97239 12.7354
2 1 5.14558 5.34305 5.5579 5.45653 -0.408901 -4.20389
3 2 5.66654 6.26814 5.52398 22.8881 4.25829 -5.63335
ITEM: TIMESTEP
49700
ITEM: NUMBER OF ATOMS
6
ITEM: BOX BOUNDS pp pp pp
0.0000000000000000e+00 1.0000000000000000e+01
0.0000000000000000e+00 1.0000000000000000e+01
0.0000000000000000e+00 1.0000000000000000e+01
ITEM: ATOMS id type x y z vx vy vz
1 1 4.4846 4.69456 4.71039 -0.104863 0.548175 5.18
6 2 3.46174 5.15402 4.69581 -5.35547 24.5516 -4.78466
5 2 4.61032 3.76646 4.09555 -13.4021 -10.6696 8.82696
4 2 5.39741 6.25854 5.86322 3.46274 4.87649 -15.6898
2 1 5.51242 5.30208 5.29386 2.21849 -0.440135 -3.85576
3 2 6.5685 4.86057 5.29646 -9.89137 -20.0459 -4.13222
ITEM: TIMESTEP
49800
ITEM: NUMBER OF ATOMS
6
ITEM: BOX BOUNDS pp pp pp
0.0000000000000000e+00 1.0000000000000000e+01
0.0000000000000000e+00 1.0000000000000000e+01
0.0000000000000000e+00 1.0000000000000000e+01
ITEM: ATOMS id type x y z vx vy vz
1 1 4.34018 4.98888 5.07627 -0.61607 6.9233 3.41935
6 2 3.64437 5.48639 4.4148 16.1823 -18.3871 2.46639
5 2 3.87185 4.4741 5.91826 18.4446 14.9708 4.01447
4 2 6.11212 5.5098 4.08953 -17.1818 -23.1205 0.290295
2 1 5.66612 5.01421 4.92288 -0.137876 -5.2496 -3.68083
3 2 6.29893 4.49253 5.58927 -8.46102 6.59275 -3.65542
ITEM: TIMESTEP
49900
ITEM: NUMBER OF ATOMS
6
ITEM: BOX BOUNDS pp pp pp
0.0000000000000000e+00 1.0000000000000000e+01
0.0000000000000000e+00 1.0000000000000000e+01
0.0000000000000000e+00 1.0000000000000000e+01
ITEM: ATOMS id type x y z vx vy vz
1 1 4.53859 5.39328 5.27788 4.90643 2.09909 0.506242
6 2 3.48183 5.23108 5.04345 -8.76159 -12.4917 4.99017
5 2 4.80617 6.24947 5.86024 23.2376 18.882 -8.19351
4 2 5.23073 3.74043 4.08873 -18.9856 -31.4895 3.02482
2 1 5.45786 4.60812 4.72818 -5.74787 -0.132692 -0.139508
3 2 6.52596 4.76193 4.93714 14.5363 1.66753 -4.19152
ITEM: TIMESTEP
50000
ITEM: NUMBER OF ATOMS
6
ITEM: BOX BOUNDS pp pp pp
0.0000000000000000e+00 1.0000000000000000e+01
0.0000000000000000e+00 1.0000000000000000e+01
0.0000000000000000e+00 1.0000000000000000e+01
ITEM: ATOMS id type x y z vx vy vz
1 1 4.92793 5.60828 5.25018 6.33784 0.629677 -2.80168
6 2 4.67973 5.79202 6.30938 18.4585 3.98818 -2.95252
5 2 5.05331 6.50109 4.57369 -7.9171 -9.36667 -0.793055
4 2 4.91017 3.50101 5.40808 9.6325 17.5861 2.12838
2 1 5.077 4.39404 4.75281 -6.3938 -2.73481 1.75534
3 2 5.30041 4.17784 3.67495 -19.507 12.8774 14.0855
ITEM: TIMESTEP
50100
ITEM: NUMBER OF ATOMS
6
ITEM: BOX BOUNDS pp pp pp
0.0000000000000000e+00 1.0000000000000000e+01
0.0000000000000000e+00 1.0000000000000000e+01
0.0000000000000000e+00 1.0000000000000000e+01
ITEM: ATOMS id type x y z vx vy vz
2 1 4.65208 4.43198 5.03903 -3.51101 3.59009 2.45813
3 2 3.61917 4.43009 4.84487 -10.6231 8.69751 24.3803
5 2 4.89216 6.47266 4.64 -7.08104 -0.126732 4.37165
4 2 5.11364 3.56314 5.39762 3.57368 3.67408 0.108335
1 1 5.34657 5.5613 4.95734 4.85711 -3.98639 -3.2436
6 2 6.39349 5.61374 5.16255 -1.90969 -7.52254 -19.5005
ITEM: TIMESTEP
50200
ITEM: NUMBER OF ATOMS
6
ITEM: BOX BOUNDS pp pp pp
0.0000000000000000e+00 1.0000000000000000e+01
0.0000000000000000e+00 1.0000000000000000e+01
0.0000000000000000e+00 1.0000000000000000e+01
ITEM: ATOMS id type x y z vx vy vz
2 1 4.55227 4.71626 5.38724 0.619311 5.26526 0.169931
3 2 4.32227 5.15061 6.39714 16.8284 0.443037 23.8672
5 2 6.01955 6.18126 4.91192 11.9277 -7.12425 -0.00901628
4 2 3.97811 3.79094 5.07635 -17.9616 -1.96509 4.24442
1 1 5.45207 5.28804 4.61326 -0.0727477 -3.66599 -1.25625
6 2 5.63076 4.82553 3.61036 -17.3074 -10.4107 -15.1579
ITEM: TIMESTEP
50300
ITEM: NUMBER OF ATOMS
6
ITEM: BOX BOUNDS pp pp pp
0.0000000000000000e+00 1.0000000000000000e+01
0.0000000000000000e+00 1.0000000000000000e+01
0.0000000000000000e+00 1.0000000000000000e+01
ITEM: ATOMS id type x y z vx vy vz
2 1 4.71696 5.1048 5.58629 2.4788 5.27302 3.06291
3 2 5.17865 4.7775 6.5275 -8.12446 -2.20145 -27.3637
5 2 6.19727 4.29387 4.36547 -22.8508 -10.3577 -10.8381
4 2 3.82656 5.72717 5.65686 29.4354 6.64563 2.0037
1 1 5.28043 4.89107 4.4095 -2.7372 -4.3075 -0.842416
6 2 4.83099 5.25037 3.50212 4.61902 -5.59178 9.73855
ITEM: TIMESTEP
50400
ITEM: NUMBER OF ATOMS
6
ITEM: BOX BOUNDS pp pp pp
0.0000000000000000e+00 1.0000000000000000e+01
0.0000000000000000e+00 1.0000000000000000e+01
0.0000000000000000e+00 1.0000000000000000e+01
ITEM: ATOMS id type x y z vx vy vz
2 1 5.16466 5.34919 5.54411 2.28055 0.426459 -2.63494
3 2 4.87797 4.98644 6.50216 -0.925367 5.66672 24.5407
5 2 4.27135 3.73192 4.52205 -29.8809 -4.43827 6.08712
4 2 5.75423 6.22566 5.44695 31.7147 -6.31731 -12.068
1 1 4.83324 4.65652 4.46128 -2.19118 0.674905 2.03123
6 2 5.1238 4.98751 3.46638 -1.97339 -8.0351 -11.3659
ITEM: TIMESTEP
50500
ITEM: NUMBER OF ATOMS
6
ITEM: BOX BOUNDS pp pp pp
0.0000000000000000e+00 1.0000000000000000e+01
0.0000000000000000e+00 1.0000000000000000e+01
0.0000000000000000e+00 1.0000000000000000e+01
ITEM: ATOMS id type x y z vx vy vz
2 1 5.52091 5.28346 5.28981 3.37719 -1.42379 -4.47411
3 2 5.41616 6.29965 5.76272 15.2334 2.64481 -13.8834
5 2 3.46287 5.1647 4.77492 9.93413 5.2736 -1.75487
4 2 6.56323 4.81438 5.25719 6.97337 -8.08712 13.0062
1 1 4.47702 4.71772 4.7077 -5.27302 1.35793 2.99202
6 2 4.58468 3.70671 4.2366 -9.55016 0.9535 20.2928
ITEM: TIMESTEP
50600
ITEM: NUMBER OF ATOMS
6
ITEM: BOX BOUNDS pp pp pp
0.0000000000000000e+00 1.0000000000000000e+01
0.0000000000000000e+00 1.0000000000000000e+01
0.0000000000000000e+00 1.0000000000000000e+01
ITEM: ATOMS id type x y z vx vy vz
2 1 5.65952 4.99723 4.9031 2.88955 -3.26387 -3.04631
3 2 6.12339 5.42893 4.02944 -7.62511 -28.8812 -0.524323
5 2 3.72834 5.50901 4.38816 -7.35802 1.70381 9.4873
4 2 6.30813 4.5134 5.58851 -6.85035 7.75055 -12.1777
1 1 4.33683 5.00341 5.10214 -0.7489 2.60448 1.98189
6 2 3.88602 4.54054 5.93321 -3.67472 27.2842 15.8985
ITEM: TIMESTEP
50700
ITEM: NUMBER OF ATOMS
6
ITEM: BOX BOUNDS pp pp pp
0.0000000000000000e+00 1.0000000000000000e+01
0.0000000000000000e+00 1.0000000000000000e+01
0.0000000000000000e+00 1.0000000000000000e+01
ITEM: ATOMS id type x y z vx vy vz
2 1 5.4535 4.58539 4.73568 -3.05057 -3.35207 -1.20343
3 2 5.13415 3.728 4.14833 -11.4114 -31.0442 -0.138151
5 2 3.44466 5.25196 5.181 -16.0625 3.35424 15.5168
4 2 6.52579 4.78489 4.84428 12.97 -1.13733 -12.2867
1 1 4.55015 5.41238 5.25641 4.01391 3.70801 1.54379
6 2 4.85429 6.2613 5.92237 3.02464 24.5859 -7.14768
ITEM: TIMESTEP
50800
ITEM: NUMBER OF ATOMS
6
ITEM: BOX BOUNDS pp pp pp
0.0000000000000000e+00 1.0000000000000000e+01
0.0000000000000000e+00 1.0000000000000000e+01
0.0000000000000000e+00 1.0000000000000000e+01
ITEM: ATOMS id type x y z vx vy vz
2 1 5.05155 4.38005 4.76035 -3.47994 -3.37729 -0.33113
3 2 4.94962 3.49519 5.4271 1.65608 9.93728 -7.68051
5 2 4.77751 5.8157 6.30287 33.7892 4.9371 -20.4546
4 2 5.22334 4.17311 3.67472 -22.3795 -20.5728 7.98754
1 1 4.94621 5.62087 5.23965 2.44453 5.10215 1.83914
6 2 5.07854 6.50456 4.59709 -0.727767 -14.8552 2.17793
ITEM: TIMESTEP
50900
ITEM: NUMBER OF ATOMS
6
ITEM: BOX BOUNDS pp pp pp
0.0000000000000000e+00 1.0000000000000000e+01
0.0000000000000000e+00 1.0000000000000000e+01
0.0000000000000000e+00 1.0000000000000000e+01
ITEM: ATOMS id type x y z vx vy vz
2 1 4.64082 4.44012 5.07177 -2.7363 -0.00452944 4.1198
3 2 5.04568 3.48393 5.33326 -9.59903 -8.19445 -1.98022
5 2 6.4115 5.55531 5.15276 23.948 -5.3952 -25.4685
4 2 3.60148 4.42186 4.87256 -8.07187 9.13664 16.7468
1 1 5.36078 5.56428 4.92696 1.71828 -1.32114 -3.12469
6 2 4.92466 6.486 4.65831 5.85366 20.2498 -1.1559
ITEM: TIMESTEP
51000
ITEM: NUMBER OF ATOMS
6
ITEM: BOX BOUNDS pp pp pp
0.0000000000000000e+00 1.0000000000000000e+01
0.0000000000000000e+00 1.0000000000000000e+01
0.0000000000000000e+00 1.0000000000000000e+01
ITEM: ATOMS id type x y z vx vy vz
2 1 4.54903 4.73399 5.41565 -0.289029 1.83544 3.68588
3 2 3.94176 3.85528 5.09877 -21.266 4.15226 2.33554
5 2 5.70924 4.87248 3.56255 -11.7856 0.699445 -12.2979
4 2 4.3428 5.13869 6.43926 10.9871 7.91726 7.33769
1 1 5.44322 5.26461 4.58409 0.338709 -1.55218 -2.63928
6 2 6.10091 6.14979 4.90424 21.4724 -16.1443 -9.84668
ITEM: TIMESTEP
51100
ITEM: NUMBER OF ATOMS
6
ITEM: BOX BOUNDS pp pp pp
0.0000000000000000e+00 1.0000000000000000e+01
0.0000000000000000e+00 1.0000000000000000e+01
0.0000000000000000e+00 1.0000000000000000e+01
ITEM: ATOMS id type x y z vx vy vz
5 2 4.86926 5.2511 3.48395 8.87613 -6.16104 16.5091
1 1 5.26855 4.86261 4.39897 -2.98631 -2.14193 -5.16119
6 2 6.14069 4.26383 4.26448 -29.2903 -18.0152 5.52848
2 1 4.73387 5.13937 5.60193 3.09336 2.68383 2.8143
3 2 3.82801 5.71341 5.70983 27.2391 8.39492 5.36895
4 2 5.13559 4.74768 6.53281 -8.10044 9.32396 0.55925
ITEM: TIMESTEP
51200
ITEM: NUMBER OF ATOMS
6
ITEM: BOX BOUNDS pp pp pp
0.0000000000000000e+00 1.0000000000000000e+01
0.0000000000000000e+00 1.0000000000000000e+01
0.0000000000000000e+00 1.0000000000000000e+01
ITEM: ATOMS id type x y z vx vy vz
5 2 5.14536 4.91954 3.45666 10.6701 -5.59184 -22.7598
1 1 4.80104 4.64818 4.46137 -4.69664 0.305796 3.91567
6 2 4.20037 3.74414 4.52549 -31.1374 -7.1691 3.96226
2 1 5.19698 5.34924 5.53517 5.56178 -0.548401 -2.76415
3 2 5.78189 6.2807 5.51994 20.3361 6.73966 -5.11172
4 2 4.89833 5.08597 6.54096 -10.1779 8.91218 10.1876
ITEM: TIMESTEP
51300
ITEM: NUMBER OF ATOMS
6
ITEM: BOX BOUNDS pp pp pp
0.0000000000000000e+00 1.0000000000000000e+01
0.0000000000000000e+00 1.0000000000000000e+01
0.0000000000000000e+00 1.0000000000000000e+01
ITEM: ATOMS id type x y z vx vy vz
5 2 4.45875 3.69369 4.24069 -14.9493 6.85268 26.6108
1 1 4.46473 4.70868 4.73152 -3.24892 1.81875 1.96686
6 2 3.44549 5.20654 4.69996 10.229 -0.0532533 -3.56222
2 1 5.54008 5.29426 5.26771 3.39766 -1.23892 -1.16104
3 2 6.51617 4.78559 5.2704 -6.7097 -10.0502 -4.68989
4 2 5.52472 6.27873 5.79989 9.65754 -3.6586 -27.9609
ITEM: TIMESTEP
51400
ITEM: NUMBER OF ATOMS
6
ITEM: BOX BOUNDS pp pp pp
0.0000000000000000e+00 1.0000000000000000e+01
0.0000000000000000e+00 1.0000000000000000e+01
0.0000000000000000e+00 1.0000000000000000e+01
ITEM: ATOMS id type x y z vx vy vz
5 2 3.88217 4.61333 5.963 6.59262 18.8113 8.58359
1 1 4.33553 5.03305 5.11088 0.522317 4.26408 4.58175
6 2 3.64966 5.44901 4.43146 10.2556 -4.17059 -4.63298
2 1 5.66521 4.96345 4.88741 -2.34692 -5.12028 -3.22914
3 2 6.34868 4.53149 5.58317 -0.955449 8.72375 -1.3962
4 2 6.1131 5.44746 4.04448 5.84926 -13.1619 -18.6722
ITEM: TIMESTEP
51500
ITEM: NUMBER OF ATOMS
6
ITEM: BOX BOUNDS pp pp pp
0.0000000000000000e+00 1.0000000000000000e+01
0.0000000000000000e+00 1.0000000000000000e+01
0.0000000000000000e+00 1.0000000000000000e+01
ITEM: ATOMS id type x y z vx vy vz
5 2 4.89664 6.34226 5.82095 23.3683 16.032 -4.14248
1 1 4.55989 5.42377 5.27688 4.08327 1.28264 -2.23037
6 2 3.45843 5.26454 5.18136 -16.531 -1.05564 14.5544
2 1 5.43676 4.57923 4.72577 -3.87078 -2.53659 2.28194
3 2 6.56315 4.67714 4.81193 6.68883 4.89324 -22.0174
4 2 5.12411 3.67997 4.15591 -16.0582 -4.92739 10.9909
ITEM: TIMESTEP
51600
ITEM: NUMBER OF ATOMS
6
ITEM: BOX BOUNDS pp pp pp
0.0000000000000000e+00 1.0000000000000000e+01
0.0000000000000000e+00 1.0000000000000000e+01
0.0000000000000000e+00 1.0000000000000000e+01
ITEM: ATOMS id type x y z vx vy vz
5 2 5.02869 6.51375 4.57369 -6.32392 -14.5503 5.46828
1 1 4.97802 5.62888 5.22889 5.61581 0.914018 -1.57726
6 2 4.81606 5.84669 6.29862 19.2344 -3.22612 -24.0607
2 1 5.01964 4.36847 4.76939 -4.75968 -1.86519 1.65276
3 2 5.20855 4.18168 3.73513 -28.3218 9.11439 12.9047
4 2 4.97699 3.48903 5.41476 5.20956 19.9964 4.78817
ITEM: TIMESTEP
51700
ITEM: NUMBER OF ATOMS
6
ITEM: BOX BOUNDS pp pp pp
0.0000000000000000e+00 1.0000000000000000e+01
0.0000000000000000e+00 1.0000000000000000e+01
0.0000000000000000e+00 1.0000000000000000e+01
ITEM: ATOMS id type x y z vx vy vz
5 2 4.95127 6.47355 4.63094 -6.0579 5.59568 4.173
1 1 5.37938 5.5494 4.92367 0.226149 -3.74471 -5.31714
6 2 6.44455 5.55383 5.04586 16.7504 -21.9212 -7.70711
2 1 4.61826 4.45027 5.08067 -0.459307 5.63833 5.00047
3 2 3.53806 4.45481 4.91869 -16.5644 14.6166 14.0554
4 2 5.09664 3.52133 5.35455 8.65022 -20.8555 -6.74778
ITEM: TIMESTEP
51800
ITEM: NUMBER OF ATOMS
6
ITEM: BOX BOUNDS pp pp pp
0.0000000000000000e+00 1.0000000000000000e+01
0.0000000000000000e+00 1.0000000000000000e+01
0.0000000000000000e+00 1.0000000000000000e+01
ITEM: ATOMS id type x y z vx vy vz
5 2 6.06756 6.16055 4.87801 3.30758 -10.1844 7.81707
1 1 5.45911 5.24596 4.5802 -1.35276 -5.31025 -3.31654
6 2 5.56065 4.84508 3.54863 -15.4614 -3.14368 -5.9035
2 1 4.54652 4.75157 5.416 1.33427 4.27639 3.27658
3 2 4.41629 5.15648 6.45616 15.4953 -2.76854 1.13769
4 2 3.8908 3.86682 5.16436 -3.12122 28.4162 -2.57511
ITEM: TIMESTEP
51900
ITEM: NUMBER OF ATOMS
6
ITEM: BOX BOUNDS pp pp pp
0.0000000000000000e+00 1.0000000000000000e+01
0.0000000000000000e+00 1.0000000000000000e+01
0.0000000000000000e+00 1.0000000000000000e+01
ITEM: ATOMS id type x y z vx vy vz
5 2 6.10782 4.22091 4.28651 -15.474 -4.87724 -4.77078
1 1 5.25887 4.84564 4.4004 -4.63169 -5.41154 -0.365379
6 2 4.79047 5.2523 3.51063 7.23438 3.23693 17.2723
2 1 4.74366 5.156 5.60138 3.72398 4.85095 1.22747
3 2 5.17218 4.72455 6.46376 3.58725 -9.29882 -16.4474
4 2 3.90175 5.7823 5.71957 15.4688 17.6192 -6.32697
ITEM: TIMESTEP
52000
ITEM: NUMBER OF ATOMS
6
ITEM: BOX BOUNDS pp pp pp
0.0000000000000000e+00 1.0000000000000000e+01
0.0000000000000000e+00 1.0000000000000000e+01
0.0000000000000000e+00 1.0000000000000000e+01
ITEM: ATOMS id type x y z vx vy vz
5 2 4.11161 3.8057 4.59775 -19.2379 4.41236 14.9284
1 1 4.80585 4.64836 4.47256 -5.52582 -0.182616 4.03734
6 2 5.05393 4.93134 3.44458 13.4104 -0.939109 -17.2228
2 1 5.19894 5.35092 5.53048 4.59105 -0.420661 -4.26973
3 2 4.88665 5.06583 6.56444 -10.1457 1.32375 12.3958
4 2 5.89309 6.20537 5.35874 27.1121 2.3917 -7.33226
ITEM: TIMESTEP
52100
ITEM: NUMBER OF ATOMS
6
ITEM: BOX BOUNDS pp pp pp
0.0000000000000000e+00 1.0000000000000000e+01
0.0000000000000000e+00 1.0000000000000000e+01
0.0000000000000000e+00 1.0000000000000000e+01
ITEM: ATOMS id type x y z vx vy vz
5 2 3.5006 5.30163 4.74423 13.2574 17.2467 -4.70867
1 1 4.44975 4.71924 4.75336 -3.40879 -1.27867 4.0052
6 2 4.51296 3.72715 4.28165 -8.80671 13.0313 19.6941
3 2 5.52265 6.29405 5.67631 14.3915 -18.2086 -22.1339
2 1 5.54659 5.27519 5.25006 3.69523 0.640444 -3.78747
4 2 6.50976 4.74311 5.25887 -22.2555 -4.46426 4.55391
ITEM: TIMESTEP
52200
ITEM: NUMBER OF ATOMS
6
ITEM: BOX BOUNDS pp pp pp
0.0000000000000000e+00 1.0000000000000000e+01
0.0000000000000000e+00 1.0000000000000000e+01
0.0000000000000000e+00 1.0000000000000000e+01
ITEM: ATOMS id type x y z vx vy vz
5 2 3.69748 5.52844 4.44112 -9.26754 -8.04685 -1.1884
1 1 4.3452 5.03625 5.11459 1.64492 6.04441 2.34294
6 2 3.95965 4.65438 6.05019 3.13784 13.2099 14.452
3 2 6.0608 5.31006 3.96931 -7.96981 -11.0545 -28.6547
2 1 5.65409 4.96582 4.88266 -0.742408 -5.18966 -1.86087
4 2 6.29286 4.48209 5.57393 3.34513 -4.29372 9.6467
ITEM: TIMESTEP
52300
ITEM: NUMBER OF ATOMS
6
ITEM: BOX BOUNDS pp pp pp
0.0000000000000000e+00 1.0000000000000000e+01
0.0000000000000000e+00 1.0000000000000000e+01
0.0000000000000000e+00 1.0000000000000000e+01
ITEM: ATOMS id type x y z vx vy vz
5 2 3.47671 5.29154 5.18451 2.85878 -0.468118 13.5119
1 1 4.58944 5.43201 5.27886 3.3285 2.91677 1.59462
6 2 4.92917 6.3554 5.77697 10.1915 16.4458 -15.3037
3 2 5.02639 3.64489 4.1928 -7.68491 -12.7732 16.9175
2 1 5.41364 4.56332 4.72435 -4.33352 -2.80816 -2.38143
4 2 6.53334 4.76343 4.80926 6.61055 -4.49868 -5.74995
ITEM: TIMESTEP
52400
ITEM: NUMBER OF ATOMS
6
ITEM: BOX BOUNDS pp pp pp
0.0000000000000000e+00 1.0000000000000000e+01
0.0000000000000000e+00 1.0000000000000000e+01
0.0000000000000000e+00 1.0000000000000000e+01
ITEM: ATOMS id type x y z vx vy vz
5 2 4.90741 5.84321 6.27453 21.137 1.92304 -5.2811
1 1 4.98496 5.62615 5.22797 5.70588 3.54929 -2.188
6 2 5.07133 6.43434 4.5201 -8.783 -10.4746 1.80832
3 2 4.88714 3.55322 5.46909 7.78757 4.22829 -12.5958
2 1 5.0214 4.3765 4.77222 -5.76309 -3.21119 1.13053
4 2 5.06076 4.13719 3.73572 -19.4598 0.294379 28.6694
ITEM: TIMESTEP
52500
ITEM: NUMBER OF ATOMS
6
ITEM: BOX BOUNDS pp pp pp
0.0000000000000000e+00 1.0000000000000000e+01
0.0000000000000000e+00 1.0000000000000000e+01
0.0000000000000000e+00 1.0000000000000000e+01
ITEM: ATOMS id type x y z vx vy vz
5 2 6.47305 5.47054 4.99506 17.8014 2.14288 -22.8597
1 1 5.38373 5.53535 4.90681 3.20181 -4.03075 -2.83146
6 2 4.92801 6.50151 4.63095 2.98194 15.7384 0.634344
3 2 5.03658 3.53143 5.39112 7.57012 -17.0713 8.76222
2 1 4.61935 4.46312 5.08995 -3.42644 3.39218 1.82156
4 2 3.52797 4.51436 5.02314 -25.6767 6.7993 25.4972
ITEM: TIMESTEP
52600
ITEM: NUMBER OF ATOMS
6
ITEM: BOX BOUNDS pp pp pp
0.0000000000000000e+00 1.0000000000000000e+01
0.0000000000000000e+00 1.0000000000000000e+01
0.0000000000000000e+00 1.0000000000000000e+01
ITEM: ATOMS id type x y z vx vy vz
5 2 5.52749 4.80142 3.55911 -12.6101 11.0593 7.01101
1 1 5.44511 5.24153 4.57363 1.78831 -2.66844 -3.56586
6 2 6.16113 6.04913 4.80233 8.54927 -23.4984 -16.108
3 2 3.84246 3.9184 5.12241 -5.48033 16.392 15.7056
2 1 4.55587 4.75892 5.43284 -2.28875 2.84446 2.31373
4 2 4.45962 5.22529 6.44073 15.5044 -6.05036 8.31191
ITEM: TIMESTEP
52700
ITEM: NUMBER OF ATOMS
6
ITEM: BOX BOUNDS pp pp pp
0.0000000000000000e+00 1.0000000000000000e+01
0.0000000000000000e+00 1.0000000000000000e+01
0.0000000000000000e+00 1.0000000000000000e+01
ITEM: ATOMS id type x y z vx vy vz
5 2 4.82532 5.2363 3.48868 -7.25011 2.93795 -8.73483
1 1 5.23654 4.84174 4.39099 -2.34843 -3.66804 -0.94226
6 2 6.03531 4.15188 4.31056 -12.357 -23.6165 -7.9051
3 2 3.97907 5.86463 5.70924 18.1617 16.2847 16.1488
2 1 4.75937 5.15344 5.60775 3.78619 3.40233 1.78375
4 2 5.21143 4.8042 6.50829 -15.6872 7.55997 -9.53621
ITEM: TIMESTEP
52800
ITEM: NUMBER OF ATOMS
6
ITEM: BOX BOUNDS pp pp pp
0.0000000000000000e+00 1.0000000000000000e+01
0.0000000000000000e+00 1.0000000000000000e+01
0.0000000000000000e+00 1.0000000000000000e+01
ITEM: ATOMS id type x y z vx vy vz
5 2 5.1177 4.88189 3.44189 -7.1961 -15.9455 -12.291
1 1 4.76945 4.64908 4.47897 -2.53368 0.230721 1.7638
6 2 4.0703 3.76093 4.62128 -20.4075 6.60217 -0.0698164
3 2 5.92777 6.19 5.40855 28.9822 -10.532 -10.3527
2 1 5.22703 5.35387 5.51792 2.28027 0.482506 -1.96247
4 2 4.92853 5.13171 6.5671 1.64109 11.3764 25.0809
ITEM: TIMESTEP
52900
ITEM: NUMBER OF ATOMS
6
ITEM: BOX BOUNDS pp pp pp
0.0000000000000000e+00 1.0000000000000000e+01
0.0000000000000000e+00 1.0000000000000000e+01
0.0000000000000000e+00 1.0000000000000000e+01
ITEM: ATOMS id type x y z vx vy vz
5 2 4.38236 3.70947 4.39154 -17.0448 20.5274 28.3615
1 1 4.4331 4.73654 4.75109 -4.42815 0.960218 2.0324
6 2 3.48502 5.23653 4.76472 8.13737 -4.7881 -3.35042
3 2 6.5399 4.71262 5.241 -8.31491 -0.637024 9.49451
2 1 5.56922 5.26674 5.2491 4.89128 -1.27009 -3.03249
4 2 5.56743 6.30193 5.60225 11.7038 -11.4098 -22.5885
ITEM: TIMESTEP
53000
ITEM: NUMBER OF ATOMS
6
ITEM: BOX BOUNDS pp pp pp
0.0000000000000000e+00 1.0000000000000000e+01
0.0000000000000000e+00 1.0000000000000000e+01
0.0000000000000000e+00 1.0000000000000000e+01
ITEM: ATOMS id type x y z vx vy vz
5 2 3.87958 4.71043 6.06173 -4.25589 14.9727 38.8381
1 1 4.34061 5.06349 5.14469 1.35909 3.02959 0.674757
6 2 3.66877 5.49468 4.42165 -7.22222 9.57422 -4.17916
3 2 6.34085 4.49728 5.55013 15.322 -0.951992 -1.46296
2 1 5.66072 4.93947 4.85887 -2.0819 -2.8574 -2.53405
4 2 6.09736 5.26197 3.92591 4.76916 -25.6468 -11.0405
ITEM: TIMESTEP
53100
ITEM: NUMBER OF ATOMS
6
ITEM: BOX BOUNDS pp pp pp
0.0000000000000000e+00 1.0000000000000000e+01
0.0000000000000000e+00 1.0000000000000000e+01
0.0000000000000000e+00 1.0000000000000000e+01
ITEM: ATOMS id type x y z vx vy vz
2 1 5.41207 4.54524 4.72895 -2.66385 -3.73973 -0.248683
6 2 3.4487 5.3177 5.32165 5.83913 4.82321 16.0325
4 2 5.04702 3.61085 4.23024 -10.4054 -13.2949 11.3792
5 2 5.00458 6.34488 5.8172 -2.47806 1.74805 -16.3469
3 2 6.52072 4.65583 4.67649 -5.56524 -0.797821 -17.4139
1 1 4.58636 5.46066 5.26737 3.72204 4.37093 0.781497
ITEM: TIMESTEP
53200
ITEM: NUMBER OF ATOMS
6
ITEM: BOX BOUNDS pp pp pp
0.0000000000000000e+00 1.0000000000000000e+01
0.0000000000000000e+00 1.0000000000000000e+01
0.0000000000000000e+00 1.0000000000000000e+01
ITEM: ATOMS id type x y z vx vy vz
2 1 4.98577 4.35588 4.7809 -3.51391 -1.64788 -0.276944
6 2 4.96704 5.89896 6.23145 32.759 6.99977 -16.1175
4 2 4.96182 3.53447 5.46921 1.28066 12.8473 6.12942
5 2 5.08332 6.49085 4.56409 1.52302 -10.5681 1.26592
3 2 5.03008 4.1138 3.72576 -24.0981 -5.85068 9.30615
1 1 5.01088 5.64089 5.22004 2.5518 1.36018 0.227933
ITEM: TIMESTEP
53300
ITEM: NUMBER OF ATOMS
6
ITEM: BOX BOUNDS pp pp pp
0.0000000000000000e+00 1.0000000000000000e+01
0.0000000000000000e+00 1.0000000000000000e+01
0.0000000000000000e+00 1.0000000000000000e+01
ITEM: ATOMS id type x y z vx vy vz
2 1 4.60823 4.46571 5.12235 0.538388 3.07864 4.54353
6 2 6.50464 5.47407 4.98387 20.439 -21.3489 -19.2875
4 2 4.98179 3.45466 5.34056 -10.4078 -8.84849 -4.27742
5 2 5.00625 6.53077 4.65526 -8.90348 24.3906 -0.246627
3 2 3.51184 4.54821 5.0406 -16.091 10.7246 13.7205
1 1 5.39159 5.53361 4.87609 0.717331 -3.49134 -3.69668
ITEM: TIMESTEP
53400
ITEM: NUMBER OF ATOMS
6
ITEM: BOX BOUNDS pp pp pp
0.0000000000000000e+00 1.0000000000000000e+01
0.0000000000000000e+00 1.0000000000000000e+01
0.0000000000000000e+00 1.0000000000000000e+01
ITEM: ATOMS id type x y z vx vy vz
2 1 4.55421 4.78614 5.4515 0.653864 1.93027 3.49744
6 2 5.5323 4.79615 3.51815 -18.5979 0.707559 6.46146
4 2 3.82353 3.98442 5.21694 -7.8779 22.0079 0.518339
5 2 6.18522 6.0253 4.83598 0.73545 -33.9357 -7.97844
3 2 4.47564 5.13884 6.47884 17.7256 4.50194 -12.9608
1 1 5.44459 5.21847 4.54446 0.0187341 -1.36647 -2.32596
ITEM: TIMESTEP
53500
ITEM: NUMBER OF ATOMS
6
ITEM: BOX BOUNDS pp pp pp
0.0000000000000000e+00 1.0000000000000000e+01
0.0000000000000000e+00 1.0000000000000000e+01
0.0000000000000000e+00 1.0000000000000000e+01
ITEM: ATOMS id type x y z vx vy vz
2 1 4.78192 5.19013 5.61054 5.50302 1.89822 0.021149
6 2 4.83121 5.22783 3.50387 5.60675 -0.0356063 2.54854
4 2 3.97108 5.86397 5.73227 4.40512 22.2676 -10.1436
5 2 6.00553 4.12766 4.238 -15.7447 -25.3312 5.70126
3 2 5.1753 4.73064 6.51755 8.77508 -6.79618 2.57154
1 1 5.21969 4.81403 4.39031 -5.75833 -1.06779 -0.0780257
ITEM: TIMESTEP
53600
ITEM: NUMBER OF ATOMS
6
ITEM: BOX BOUNDS pp pp pp
0.0000000000000000e+00 1.0000000000000000e+01
0.0000000000000000e+00 1.0000000000000000e+01
0.0000000000000000e+00 1.0000000000000000e+01
ITEM: ATOMS id type x y z vx vy vz
2 1 5.24938 5.35414 5.50834 5.95543 -1.17371 -4.64063
6 2 5.08548 4.82449 3.43105 16.3774 -2.07452 -7.09324
4 2 5.9777 6.21161 5.37119 4.05344 -11.0489 -5.69095
5 2 4.01793 3.81106 4.6252 -24.6154 4.6302 14.6565
3 2 4.92228 5.14801 6.55111 -7.97193 9.9152 0.680501
1 1 4.75053 4.64623 4.4936 -4.93525 1.05437 4.42639
ITEM: TIMESTEP
53700
ITEM: NUMBER OF ATOMS
6
ITEM: BOX BOUNDS pp pp pp
0.0000000000000000e+00 1.0000000000000000e+01
0.0000000000000000e+00 1.0000000000000000e+01
0.0000000000000000e+00 1.0000000000000000e+01
ITEM: ATOMS id type x y z vx vy vz
2 1 5.57046 5.26995 5.21642 1.59423 -1.34721 -2.27032
6 2 4.37487 3.70827 4.40134 -5.18869 15.7338 29.8578
4 2 6.46365 4.68093 5.25733 -6.70107 -12.034 -3.25873
5 2 3.52402 5.34913 4.74239 19.402 2.11721 -1.48218
3 2 5.66984 6.24463 5.64007 4.23303 -15.3799 -30.8509
1 1 4.42702 4.73144 4.78028 -2.5799 2.14973 2.75152
ITEM: TIMESTEP
53800
ITEM: NUMBER OF ATOMS
6
ITEM: BOX BOUNDS pp pp pp
0.0000000000000000e+00 1.0000000000000000e+01
0.0000000000000000e+00 1.0000000000000000e+01
0.0000000000000000e+00 1.0000000000000000e+01
ITEM: ATOMS id type x y z vx vy vz
2 1 5.64558 4.9109 4.85303 -4.35097 -5.59211 -2.84063
6 2 3.95561 4.7811 6.09649 -4.2781 14.3643 21.508
4 2 6.33892 4.49674 5.57185 -1.59402 1.78112 14.885
5 2 3.66104 5.50189 4.4441 -3.92251 -4.21446 -9.76607
3 2 6.04277 5.29102 3.88922 -1.99382 -2.71863 -32.201
1 1 4.35476 5.08313 5.14698 5.34026 4.81901 3.30841
ITEM: TIMESTEP
53900
ITEM: NUMBER OF ATOMS
6
ITEM: BOX BOUNDS pp pp pp
0.0000000000000000e+00 1.0000000000000000e+01
0.0000000000000000e+00 1.0000000000000000e+01
0.0000000000000000e+00 1.0000000000000000e+01
ITEM: ATOMS id type x y z vx vy vz
2 1 5.38695 4.5423 4.71568 -3.61546 -2.53351 1.67421
6 2 5.03418 6.40716 5.69265 16.1161 -4.75454 -19.5028
4 2 6.51971 4.64944 4.74219 -15.2459 -2.06456 -20.5775
5 2 3.49581 5.34978 5.30322 4.22363 -0.550453 14.8255
3 2 4.93283 3.63344 4.28818 -3.9585 10.4715 18.0852
1 1 4.61471 5.45432 5.28227 3.52018 2.27319 -1.07254
ITEM: TIMESTEP
54000
ITEM: NUMBER OF ATOMS
6
ITEM: BOX BOUNDS pp pp pp
0.0000000000000000e+00 1.0000000000000000e+01
0.0000000000000000e+00 1.0000000000000000e+01
0.0000000000000000e+00 1.0000000000000000e+01
ITEM: ATOMS id type x y z vx vy vz
2 1 4.96353 4.36749 4.79597 -5.65607 0.771293 3.5832
6 2 5.0565 6.43251 4.48266 -7.50381 -4.1611 -3.44299
4 2 5.01721 4.14026 3.7834 -22.5732 -0.104232 0.627573
5 2 5.02129 5.83959 6.24204 14.74 -6.56623 -12.9443
3 2 4.92412 3.5435 5.47742 8.8436 4.81379 2.94607
1 1 5.03507 5.63618 5.20539 6.20099 -0.266281 -2.50787
ITEM: TIMESTEP
54100
ITEM: NUMBER OF ATOMS
6
ITEM: BOX BOUNDS pp pp pp
0.0000000000000000e+00 1.0000000000000000e+01
0.0000000000000000e+00 1.0000000000000000e+01
0.0000000000000000e+00 1.0000000000000000e+01
ITEM: ATOMS id type x y z vx vy vz
2 1 4.59422 4.49027 5.1229 -1.03397 4.5908 4.68963
4 2 3.47034 4.59337 5.0839 -10.4236 18.3077 15.2895
6 2 4.97746 6.47109 4.59098 4.8711 13.1815 0.595656
3 2 5.05384 3.51461 5.39375 7.66789 -17.0741 -6.39091
5 2 6.51814 5.40004 4.87402 12.5412 -8.52601 -14.2779
1 1 5.40432 5.51145 4.88206 -0.196009 -5.08502 -4.28819
ITEM: TIMESTEP
54200
ITEM: NUMBER OF ATOMS
6
ITEM: BOX BOUNDS pp pp pp
0.0000000000000000e+00 1.0000000000000000e+01
0.0000000000000000e+00 1.0000000000000000e+01
0.0000000000000000e+00 1.0000000000000000e+01
ITEM: ATOMS id type x y z vx vy vz
2 1 4.55463 4.80012 5.45471 0.19236 4.35094 3.87626
4 2 4.58933 5.25133 6.44617 8.43798 -15.4843 -4.21943
6 2 6.16795 6.00703 4.76815 -8.52614 -23.7808 -3.09581
3 2 3.83795 4.00012 5.21477 5.94153 36.469 8.72243
5 2 5.43877 4.79996 3.5403 -12.1536 7.63844 0.334037
1 1 5.44272 5.19495 4.54801 0.336353 -4.75731 -4.02238
ITEM: TIMESTEP
54300
ITEM: NUMBER OF ATOMS
6
ITEM: BOX BOUNDS pp pp pp
0.0000000000000000e+00 1.0000000000000000e+01
0.0000000000000000e+00 1.0000000000000000e+01
0.0000000000000000e+00 1.0000000000000000e+01
ITEM: ATOMS id type x y z vx vy vz
2 1 4.79262 5.19487 5.60207 5.04891 3.77979 -1.30305
4 2 5.23572 4.77089 6.47388 -2.51529 -8.10127 8.56889
6 2 5.96599 4.05723 4.28098 4.14658 -22.7078 -7.32732
3 2 4.04136 5.93312 5.74352 2.67272 30.7656 12.9392
5 2 4.72076 5.23932 3.53782 0.287266 6.62601 3.79115
1 1 5.21061 4.80505 4.39504 -5.43421 -4.33219 -0.205156
ITEM: TIMESTEP
54400
ITEM: NUMBER OF ATOMS
6
ITEM: BOX BOUNDS pp pp pp
0.0000000000000000e+00 1.0000000000000000e+01
0.0000000000000000e+00 1.0000000000000000e+01
0.0000000000000000e+00 1.0000000000000000e+01
ITEM: ATOMS id type x y z vx vy vz
2 1 5.25308 5.35451 5.49738 5.48934 1.71987 -1.84072
4 2 4.96817 5.17142 6.57963 -3.84355 8.12798 3.26265
6 2 3.97407 3.87658 4.72453 -9.1919 16.0735 -3.33638
3 2 6.03898 6.14096 5.27166 16.5003 -15.4651 -1.65948
5 2 4.99297 4.86441 3.42848 -6.05754 -14.8548 -7.98157
1 1 4.74928 4.64098 4.5024 -5.27177 -1.20643 2.65598
ITEM: TIMESTEP
54500
ITEM: NUMBER OF ATOMS
6
ITEM: BOX BOUNDS pp pp pp
0.0000000000000000e+00 1.0000000000000000e+01
0.0000000000000000e+00 1.0000000000000000e+01
0.0000000000000000e+00 1.0000000000000000e+01
ITEM: ATOMS id type x y z vx vy vz
2 1 5.58611 5.24807 5.21151 3.70451 1.24378 -3.86517
4 2 5.63413 6.26683 5.51787 21.9126 -20.707 -20.0219
6 2 3.50908 5.34237 4.79022 4.70795 10.4255 -11.389
3 2 6.46866 4.6411 5.19385 -9.84358 -2.84578 9.2149
5 2 4.34108 3.76135 4.43304 -16.1638 10.0506 13.293
1 1 4.41803 4.75092 4.79409 -3.75597 -0.98559 4.61231
ITEM: TIMESTEP
54600
ITEM: NUMBER OF ATOMS
6
ITEM: BOX BOUNDS pp pp pp
0.0000000000000000e+00 1.0000000000000000e+01
0.0000000000000000e+00 1.0000000000000000e+01
0.0000000000000000e+00 1.0000000000000000e+01
ITEM: ATOMS id type x y z vx vy vz
2 1 5.64041 4.91286 4.84699 -1.91072 -4.53586 -0.4831
4 2 6.04736 5.15345 3.8505 6.97292 -18.9633 -31.4681
6 2 3.66912 5.59654 4.47572 -15.8781 2.65765 -6.88348
3 2 6.32972 4.43101 5.5212 20.4838 -4.71809 -0.976789
5 2 3.98977 4.80549 6.17122 4.47712 12.9558 20.6476
1 1 4.35677 5.08824 5.15159 0.563322 5.21292 2.0508
ITEM: TIMESTEP
54700
ITEM: NUMBER OF ATOMS
6
ITEM: BOX BOUNDS pp pp pp
0.0000000000000000e+00 1.0000000000000000e+01
0.0000000000000000e+00 1.0000000000000000e+01
0.0000000000000000e+00 1.0000000000000000e+01
ITEM: ATOMS id type x y z vx vy vz
2 1 5.36461 4.51931 4.72381 -2.53887 -4.3088 -3.41922
4 2 4.94628 3.60098 4.27651 -1.03295 -1.99082 25.0163
6 2 3.52522 5.38146 5.29588 21.2883 13.797 17.1923
3 2 6.49823 4.61781 4.64085 -11.2293 -7.69923 -7.03897
5 2 5.06186 6.39089 5.70967 -6.52261 3.59674 -21.6608
1 1 4.63294 5.4814 5.2828 2.32878 3.6623 2.28556
ITEM: TIMESTEP
54800
ITEM: NUMBER OF ATOMS
6
ITEM: BOX BOUNDS pp pp pp
0.0000000000000000e+00 1.0000000000000000e+01
0.0000000000000000e+00 1.0000000000000000e+01
0.0000000000000000e+00 1.0000000000000000e+01
ITEM: ATOMS id type x y z vx vy vz
2 1 4.96218 4.3591 4.79498 -4.66601 -1.96886 2.80311
4 2 4.84734 3.5698 5.52674 1.44282 -1.39428 -5.20995
6 2 5.08533 5.95036 6.21366 24.1857 12.829 7.9718
3 2 4.8777 4.08831 3.79234 -21.8784 -4.49498 3.54972
5 2 5.13433 6.44484 4.50625 -7.69578 9.26341 -4.56269
1 1 5.04266 5.63639 5.2019 4.99713 0.60909 -2.94987
ITEM: TIMESTEP
54900
ITEM: NUMBER OF ATOMS
6
ITEM: BOX BOUNDS pp pp pp
0.0000000000000000e+00 1.0000000000000000e+01
0.0000000000000000e+00 1.0000000000000000e+01