ITEM: TIMESTEP
49600
ITEM: NUMBER OF ATOMS
6
ITEM: BOX BOUNDS pp pp pp
0.0000000000000000e+00 1.0000000000000000e+01
0.0000000000000000e+00 1.0000000000000000e+01
0.0000000000000000e+00 1.0000000000000000e+01
ITEM: ATOMS id type x y z vx vy vz
1 1 4.85284 4.65129 4.43875 -6.54163 -0.191578 2.46145
6 2 4.29371 3.75296 4.50568 -15.6555 6.85083 14.8524
5 2 5.08028 5.00921 3.47484 14.1674 -5.566 0.428596
4 2 4.89441 5.03581 6.56469 -11.49 2.71332 12.9238
2 1 5.15093 5.34396 5.55614 5.63654 -0.45521 -4.33703
3 2 5.68913 6.25828 5.51745 23.7632 3.70903 -5.85537
ITEM: TIMESTEP
49700
ITEM: NUMBER OF ATOMS
6
ITEM: BOX BOUNDS pp pp pp
0.0000000000000000e+00 1.0000000000000000e+01
0.0000000000000000e+00 1.0000000000000000e+01
0.0000000000000000e+00 1.0000000000000000e+01
ITEM: ATOMS id type x y z vx vy vz
1 1 4.46996 4.70255 4.72904 -0.103665 0.677354 5.54851
6 2 3.47312 5.21389 4.677 -4.35257 24.6898 -6.27075
5 2 4.54821 3.72954 4.17828 -14.44 -10.1281 10.0931
4 2 5.46219 6.29297 5.77802 3.75184 4.25462 -16.7783
2 1 5.52673 5.29459 5.2755 2.26317 -0.581977 -4.20554
3 2 6.55837 4.79728 5.31429 -10.6921 -19.9529 -3.047
ITEM: TIMESTEP
49800
ITEM: NUMBER OF ATOMS
6
ITEM: BOX BOUNDS pp pp pp
0.0000000000000000e+00 1.0000000000000000e+01
0.0000000000000000e+00 1.0000000000000000e+01
0.0000000000000000e+00 1.0000000000000000e+01
ITEM: ATOMS id type x y z vx vy vz
1 1 4.34496 5.02717 5.10543 -0.163108 7.27084 3.02309
6 2 3.63565 5.4659 4.41579 15.6845 -19.6303 4.96221
5 2 3.89988 4.64646 6.02829 20.1996 14.6911 2.09429
4 2 6.08261 5.33889 3.98132 -19.0446 -22.7581 3.68567
2 1 5.66158 4.97561 4.89324 -0.541326 -5.56482 -3.48032
3 2 6.3064 4.51513 5.59222 -8.44541 7.36811 -5.29373
ITEM: TIMESTEP
49900
ITEM: NUMBER OF ATOMS
6
ITEM: BOX BOUNDS pp pp pp
0.0000000000000000e+00 1.0000000000000000e+01
0.0000000000000000e+00 1.0000000000000000e+01
0.0000000000000000e+00 1.0000000000000000e+01
ITEM: ATOMS id type x y z vx vy vz
1 1 4.58179 5.43513 5.28367 5.26347 1.85279 0.28358
6 2 3.50472 5.24925 5.24751 -7.86547 -11.8531 10.3818
5 2 4.927 6.36643 5.67644 22.5256 16.3715 -14.3086
4 2 5.10491 3.61483 4.26893 -18.9196 -30.7807 10.4619
2 1 5.4154 4.56712 4.72257 -6.06343 0.249868 -0.110938
3 2 6.49921 4.74222 4.73459 13.792 1.20687 -8.59231
ITEM: TIMESTEP
50000
ITEM: NUMBER OF ATOMS
6
ITEM: BOX BOUNDS pp pp pp
0.0000000000000000e+00 1.0000000000000000e+01
0.0000000000000000e+00 1.0000000000000000e+01
0.0000000000000000e+00 1.0000000000000000e+01
ITEM: ATOMS id type x y z vx vy vz
1 1 5.01059 5.6227 5.2224 6.13159 -0.157168 -3.81422
6 2 5.05517 5.8713 6.29683 18.7165 1.69796 -6.92524
5 2 4.97862 6.47528 4.48265 -6.52828 -8.0271 2.81153
4 2 4.98173 3.529 5.51112 9.3478 16.798 -2.19868
2 1 4.99521 4.37953 4.77905 -6.58201 -2.04847 2.96853
3 2 4.91778 4.09743 3.69392 -16.1688 15.8137 16.3897
ITEM: TIMESTEP
50100
ITEM: NUMBER OF ATOMS
6
ITEM: BOX BOUNDS pp pp pp
0.0000000000000000e+00 1.0000000000000000e+01
0.0000000000000000e+00 1.0000000000000000e+01
0.0000000000000000e+00 1.0000000000000000e+01
ITEM: ATOMS id type x y z vx vy vz
2 1 4.60029 4.47982 5.12199 -2.99712 4.29985 2.79476
3 2 3.56743 4.62559 5.24846 -0.521277 10.1228 26.7222
5 2 5.00738 6.49629 4.74116 -3.31815 -0.398654 7.90146
4 2 5.01588 3.53522 5.29338 0.428692 4.05204 -2.41838
1 1 5.39611 5.51388 4.87466 4.04821 -4.81457 -3.96319
6 2 6.4546 5.41753 4.75865 -9.11413 -7.6427 -18.2822
ITEM: TIMESTEP
50200
ITEM: NUMBER OF ATOMS
6
ITEM: BOX BOUNDS pp pp pp
0.0000000000000000e+00 1.0000000000000000e+01
0.0000000000000000e+00 1.0000000000000000e+01
0.0000000000000000e+00 1.0000000000000000e+01
ITEM: ATOMS id type x y z vx vy vz
2 1 4.56238 4.80679 5.44974 1.48609 6.14071 0.0147051
3 2 4.68606 5.11309 6.52069 17.6191 -6.72561 20.1587
5 2 6.32833 5.8002 4.79561 11.0548 -13.1177 -2.31199
4 2 3.6583 4.17749 5.1916 -19.2224 4.61452 6.50484
1 1 5.44302 5.19631 4.55007 -0.553524 -4.46574 -0.994395
6 2 5.26538 4.87179 3.49621 -20.564 -4.73033 -12.6775
ITEM: TIMESTEP
50300
ITEM: NUMBER OF ATOMS
6
ITEM: BOX BOUNDS pp pp pp
0.0000000000000000e+00 1.0000000000000000e+01
0.0000000000000000e+00 1.0000000000000000e+01
0.0000000000000000e+00 1.0000000000000000e+01
ITEM: ATOMS id type x y z vx vy vz
2 1 4.82806 5.20862 5.60111 4.08639 5.0509 2.23991
3 2 5.15917 4.69703 6.52006 -10.5374 4.95674 -26.7558
5 2 5.7321 3.8519 4.29818 -26.6367 -1.83485 -7.43116
4 2 4.30395 6.15901 5.71793 29.7698 -5.03647 -1.53913
1 1 5.16747 4.78872 4.39498 -3.79162 -3.94172 -0.0496584
6 2 4.86043 5.32336 3.5122 3.89192 -11.3024 9.62688
ITEM: TIMESTEP
50400
ITEM: NUMBER OF ATOMS
6
ITEM: BOX BOUNDS pp pp pp
0.0000000000000000e+00 1.0000000000000000e+01
0.0000000000000000e+00 1.0000000000000000e+01
0.0000000000000000e+00 1.0000000000000000e+01
ITEM: ATOMS id type x y z vx vy vz
2 1 5.30443 5.35187 5.47835 2.16809 0.467954 -3.46036
3 2 4.86635 5.40739 6.44121 2.46227 17.0951 20.8386
5 2 3.7676 4.13824 4.71174 -28.0064 10.8116 5.47451
4 2 6.23775 5.80673 5.2737 22.2371 -21.4085 -8.90331
1 1 4.69646 4.65552 4.52543 -1.46944 0.129547 2.67993
6 2 5.1201 4.55911 3.53013 -5.01812 -13.6181 -8.11019
ITEM: TIMESTEP
50500
ITEM: NUMBER OF ATOMS
6
ITEM: BOX BOUNDS pp pp pp
0.0000000000000000e+00 1.0000000000000000e+01
0.0000000000000000e+00 1.0000000000000000e+01
0.0000000000000000e+00 1.0000000000000000e+01
ITEM: ATOMS id type x y z vx vy vz
2 1 5.60494 5.21364 5.15276 2.20171 -3.16313 -4.85935
3 2 5.85436 6.30914 5.06977 13.4279 -6.39844 -16.1912
5 2 3.56521 5.49681 4.62113 8.0989 -0.981921 0.273886
4 2 6.45146 4.49488 5.42416 9.48752 -2.42014 11.6796
1 1 4.39309 4.7868 4.84358 -4.29901 3.09604 3.39217
6 2 4.15487 3.69353 4.93036 -6.02271 10.6 21.7207
ITEM: TIMESTEP
50600
ITEM: NUMBER OF ATOMS
6
ITEM: BOX BOUNDS pp pp pp
0.0000000000000000e+00 1.0000000000000000e+01
0.0000000000000000e+00 1.0000000000000000e+01
0.0000000000000000e+00 1.0000000000000000e+01
ITEM: ATOMS id type x y z vx vy vz
2 1 5.60583 4.81567 4.79393 1.60797 -4.12653 -2.85084
3 2 5.83877 4.63003 3.75168 -13.634 -21.0014 14.8186
5 2 3.64121 5.34713 4.47118 -5.77364 5.86876 14.169
4 2 6.39371 4.65325 5.4894 -9.73671 2.36976 -19.4257
1 1 4.39181 5.18792 5.21119 0.242538 2.54057 2.22074
6 2 4.1569 5.32648 6.22847 7.09349 31.6614 -2.05354
ITEM: TIMESTEP
50700
ITEM: NUMBER OF ATOMS
6
ITEM: BOX BOUNDS pp pp pp
0.0000000000000000e+00 1.0000000000000000e+01
0.0000000000000000e+00 1.0000000000000000e+01
0.0000000000000000e+00 1.0000000000000000e+01
ITEM: ATOMS id type x y z vx vy vz
2 1 5.29911 4.46737 4.7264 -4.31786 -2.9287 0.0307236
3 2 4.8571 3.48752 4.82006 -8.30183 -25.785 12.1928
5 2 3.7801 5.46178 5.89506 -3.0392 9.34075 25.6283
4 2 6.20752 4.58134 4.12832 0.752158 -6.43071 -21.8614
1 1 4.69987 5.52665 5.2667 5.36979 3.19287 -0.238691
6 2 5.16988 6.54022 5.24054 -1.94602 19.7271 -13.4815
ITEM: TIMESTEP
50800
ITEM: NUMBER OF ATOMS
6
ITEM: BOX BOUNDS pp pp pp
0.0000000000000000e+00 1.0000000000000000e+01
0.0000000000000000e+00 1.0000000000000000e+01
0.0000000000000000e+00 1.0000000000000000e+01
ITEM: ATOMS id type x y z vx vy vz
2 1 4.81835 4.37177 4.87368 -4.67372 -1.95322 1.39438
3 2 5.13486 3.534 5.54523 -9.10085 6.81256 -9.2114
5 2 5.81048 5.89881 5.98903 13.7984 -6.53108 -36.8294
4 2 4.18791 4.08363 3.99446 -16.86 -12.5312 20.604
1 1 5.17937 5.63014 5.12786 5.31327 3.98417 0.155679
6 2 4.8963 6.46041 4.45473 4.54157 -11.9512 6.96624
ITEM: TIMESTEP
50900
ITEM: NUMBER OF ATOMS
6
ITEM: BOX BOUNDS pp pp pp
0.0000000000000000e+00 1.0000000000000000e+01
0.0000000000000000e+00 1.0000000000000000e+01
0.0000000000000000e+00 1.0000000000000000e+01
ITEM: ATOMS id type x y z vx vy vz
2 1 4.56039 4.57425 5.26992 -1.96991 1.04033 4.27227
3 2 4.573 3.51423 5.13215 -18.4686 -0.610418 1.36341
5 2 6.27725 5.05108 4.17546 -1.1365 -6.01346 -31.9291
4 2 3.72457 4.91771 5.82122 9.58472 8.33956 13.1942
1 1 5.44266 5.42996 4.72919 1.06422 -2.18316 -2.70194
6 2 5.39118 6.46643 4.88363 20.8126 11.9024 -1.3407
ITEM: TIMESTEP
51000
ITEM: NUMBER OF ATOMS
6
ITEM: BOX BOUNDS pp pp pp
0.0000000000000000e+00 1.0000000000000000e+01
0.0000000000000000e+00 1.0000000000000000e+01
0.0000000000000000e+00 1.0000000000000000e+01
ITEM: ATOMS id type x y z vx vy vz
2 1 4.61141 4.95356 5.54198 0.730851 2.91162 2.54346
3 2 3.50725 4.878 5.44648 -12.8048 22.8023 9.62449
5 2 5.03197 5.03223 3.39409 -7.18139 6.32311 -8.94631
4 2 5.02037 4.95903 6.58327 11.6993 2.93933 5.92961
1 1 5.38146 5.04988 4.46087 -0.429297 -3.43621 -1.67357
6 2 6.52775 5.08939 4.54389 4.69356 -25.8137 -16.9735
ITEM: TIMESTEP
51100
ITEM: NUMBER OF ATOMS
6
ITEM: BOX BOUNDS pp pp pp
0.0000000000000000e+00 1.0000000000000000e+01
0.0000000000000000e+00 1.0000000000000000e+01
0.0000000000000000e+00 1.0000000000000000e+01
ITEM: ATOMS id type x y z vx vy vz
6 2 5.00482 3.62371 4.29514 -28.8992 12.4454 14.5921
5 2 5.00711 5.22503 3.46706 3.45743 -19.1519 18.2528
1 1 4.99349 4.6893 4.40524 -4.04666 -1.28977 -3.814
2 1 5.01025 5.30947 5.59534 4.10038 1.38914 1.31179
3 2 4.94044 6.38874 5.6868 24.2007 -15.077 -3.44071
4 2 5.0054 4.77686 6.54587 0.600789 20.5994 0.412319
ITEM: TIMESTEP
51200
ITEM: NUMBER OF ATOMS
6
ITEM: BOX BOUNDS pp pp pp
0.0000000000000000e+00 1.0000000000000000e+01
0.0000000000000000e+00 1.0000000000000000e+01
0.0000000000000000e+00 1.0000000000000000e+01
ITEM: ATOMS id type x y z vx vy vz
6 2 3.49041 4.69517 4.77692 -21.1227 15.8478 1.60977
5 2 4.8948 4.0386 3.79876 -2.52028 -31.0699 -8.22921
1 1 4.55508 4.67558 4.61142 -2.67587 2.89509 4.40018
2 1 5.44133 5.32168 5.38641 2.98046 -2.69547 -2.87626
3 2 6.52272 5.36199 5.23401 17.8974 -11.1299 -5.27058
4 2 5.13733 5.93649 6.21797 2.1161 23.9733 -6.26915
ITEM: TIMESTEP
51300
ITEM: NUMBER OF ATOMS
6
ITEM: BOX BOUNDS pp pp pp
0.0000000000000000e+00 1.0000000000000000e+01
0.0000000000000000e+00 1.0000000000000000e+01
0.0000000000000000e+00 1.0000000000000000e+01
ITEM: ATOMS id type x y z vx vy vz
6 2 3.60752 5.53965 4.41671 0.865857 -5.75164 4.46273
5 2 3.8162 4.05006 5.5413 1.35638 24.5575 12.9293
1 1 4.34312 4.89522 5.00626 -0.806457 3.53198 2.94067
2 1 5.66284 5.1035 4.99321 1.499 -2.90041 -2.63082
3 2 6.34708 4.44372 5.55368 -5.52608 -2.66726 -1.37452
4 2 6.16057 5.98145 4.49631 -4.94862 -23.6644 -19.7098
ITEM: TIMESTEP
51400
ITEM: NUMBER OF ATOMS
6
ITEM: BOX BOUNDS pp pp pp
0.0000000000000000e+00 1.0000000000000000e+01
0.0000000000000000e+00 1.0000000000000000e+01
0.0000000000000000e+00 1.0000000000000000e+01
ITEM: ATOMS id type x y z vx vy vz
6 2 3.5005 5.28327 4.86383 11.9607 -9.83017 9.86892
5 2 4.5483 5.94199 6.12093 13.9515 6.39143 -12.8824
1 1 4.47453 5.33941 5.25305 2.99668 5.57348 1.44595
2 1 5.52499 4.6569 4.7477 -4.11897 -4.06522 0.362237
3 2 6.50589 4.72007 5.16585 -4.02656 6.11117 -19.7028
4 2 5.45333 4.09826 3.84221 -8.51243 -20.645 1.16969
ITEM: TIMESTEP
51500
ITEM: NUMBER OF ATOMS
6
ITEM: BOX BOUNDS pp pp pp
0.0000000000000000e+00 1.0000000000000000e+01
0.0000000000000000e+00 1.0000000000000000e+01
0.0000000000000000e+00 1.0000000000000000e+01
ITEM: ATOMS id type x y z vx vy vz
6 2 4.31049 5.70852 6.22537 9.33775 9.994 25.3795
5 2 5.1218 6.53461 4.73217 11.3571 9.04146 -22.3464
1 1 4.86386 5.60094 5.26801 3.779 -1.90954 -1.7989
2 1 5.13631 4.40432 4.73504 -3.62085 0.666917 2.22365
3 2 5.70411 4.23825 3.77138 -20.8676 -7.79146 -23.5671
4 2 4.86399 3.45551 5.23648 -1.71181 3.56323 15.4728
ITEM: TIMESTEP
51600
ITEM: NUMBER OF ATOMS
6
ITEM: BOX BOUNDS pp pp pp
0.0000000000000000e+00 1.0000000000000000e+01
0.0000000000000000e+00 1.0000000000000000e+01
0.0000000000000000e+00 1.0000000000000000e+01
ITEM: ATOMS id type x y z vx vy vz
6 2 6.30881 5.72428 5.47366 -11.0666 -10.2217 -20.4095
5 2 4.87959 6.51307 4.55273 7.70253 -12.8182 12.3687
1 1 5.31749 5.58747 4.98791 3.95762 -2.03185 -5.14118
2 1 4.67982 4.40952 5.01409 -4.21164 0.903872 4.50193
3 2 3.72878 4.30912 4.52264 5.0545 20.7175 27.6107
4 2 5.1172 3.48899 5.42898 1.33652 15.7635 -11.9526
ITEM: TIMESTEP
51700
ITEM: NUMBER OF ATOMS
6
ITEM: BOX BOUNDS pp pp pp
0.0000000000000000e+00 1.0000000000000000e+01
0.0000000000000000e+00 1.0000000000000000e+01
0.0000000000000000e+00 1.0000000000000000e+01
ITEM: ATOMS id type x y z vx vy vz
6 2 5.82835 4.87951 3.71048 -17.244 -22.7298 -10.0775
5 2 5.83086 6.26216 4.85819 14.2735 -5.71262 6.98643
1 1 5.46325 5.30185 4.61885 -2.20891 -2.47352 -1.83356
2 1 4.53746 4.6963 5.38409 3.57234 4.27188 1.53383
3 2 4.16897 5.1418 6.30395 14.5114 12.2702 17.0798
4 2 4.16585 3.7382 5.09412 -27.7876 -5.25723 -10.4172
ITEM: TIMESTEP
51800
ITEM: NUMBER OF ATOMS
6
ITEM: BOX BOUNDS pp pp pp
0.0000000000000000e+00 1.0000000000000000e+01
0.0000000000000000e+00 1.0000000000000000e+01
0.0000000000000000e+00 1.0000000000000000e+01
ITEM: ATOMS id type x y z vx vy vz
6 2 4.80105 5.22896 3.47011 -6.61849 6.00551 -2.68271
5 2 6.3364 4.45145 4.36308 -4.10377 -17.3383 10.3979
1 1 5.28989 4.88776 4.40814 -5.86098 -3.83394 -0.673786
2 1 4.71114 5.10868 5.58582 4.73256 4.01729 0.57597
3 2 5.17104 4.77724 6.55685 2.23745 -8.33033 -1.8064
4 2 3.68165 5.58438 5.68364 21.9312 17.4782 -4.74325
ITEM: TIMESTEP
51900
ITEM: NUMBER OF ATOMS
6
ITEM: BOX BOUNDS pp pp pp
0.0000000000000000e+00 1.0000000000000000e+01
0.0000000000000000e+00 1.0000000000000000e+01
0.0000000000000000e+00 1.0000000000000000e+01
ITEM: ATOMS id type x y z vx vy vz
6 2 5.04099 5.03664 3.46907 5.44179 -14.4407 18.7971
5 2 4.31717 3.70688 4.52993 -8.12023 15.2146 5.07065
1 1 4.82604 4.64254 4.46169 -6.46442 -0.220334 1.93291
2 1 5.17656 5.35681 5.54051 6.08204 0.776083 -0.630455
3 2 4.90955 4.98906 6.49809 -7.9866 6.60247 -22.2411
4 2 5.70373 6.2748 5.47845 15.2214 -13.9987 -17.1468
ITEM: TIMESTEP
52000
ITEM: NUMBER OF ATOMS
6
ITEM: BOX BOUNDS pp pp pp
0.0000000000000000e+00 1.0000000000000000e+01
0.0000000000000000e+00 1.0000000000000000e+01
0.0000000000000000e+00 1.0000000000000000e+01
ITEM: ATOMS id type x y z vx vy vz
6 2 4.50537 3.77907 4.182 -1.01097 -27.2102 8.80589
5 2 3.49789 5.21946 4.76652 -2.50882 20.375 0.422624
1 1 4.46348 4.70929 4.74068 -2.8878 4.00547 4.77616
2 1 5.53885 5.29054 5.26341 1.67207 -3.94 -5.31517
3 2 5.48681 6.26901 5.78116 4.54712 25.2515 -6.45301
4 2 6.48459 4.73406 5.22338 13.4594 -19.1963 3.64732
ITEM: TIMESTEP
52100
ITEM: NUMBER OF ATOMS
6
ITEM: BOX BOUNDS pp pp pp
0.0000000000000000e+00 1.0000000000000000e+01
0.0000000000000000e+00 1.0000000000000000e+01
0.0000000000000000e+00 1.0000000000000000e+01
ITEM: ATOMS id type x y z vx vy vz
6 2 3.92938 4.59599 6.04925 9.59205 21.5418 -2.46805
1 1 4.34936 5.04645 5.12675 -0.2853 4.96587 6.5669
5 2 3.69169 5.54559 4.37388 7.78901 -8.88715 -7.01269
4 2 6.34712 4.47062 5.59717 -13.0263 10.88 -7.64432
2 1 5.64593 4.95662 4.87714 0.577542 -5.02255 -5.8536
3 2 6.09028 5.35082 3.93503 -7.83712 -22.8593 8.62527
ITEM: TIMESTEP
52200
ITEM: NUMBER OF ATOMS
6
ITEM: BOX BOUNDS pp pp pp
0.0000000000000000e+00 1.0000000000000000e+01
0.0000000000000000e+00 1.0000000000000000e+01
0.0000000000000000e+00 1.0000000000000000e+01
ITEM: ATOMS id type x y z vx vy vz
6 2 5.02247 6.32991 5.71785 9.77179 11.6343 -13.8091
1 1 4.59191 5.44107 5.28251 2.77214 2.62958 -0.730522
5 2 3.54415 5.34192 5.23792 4.83214 6.22497 25.436
4 2 6.44654 4.67848 4.75399 1.33978 1.5555 -9.84809
2 1 5.40625 4.55727 4.71614 -2.47074 -3.22814 -0.536501
3 2 5.01118 3.66899 4.30807 -19.5352 -12.2821 13.3192
ITEM: TIMESTEP
52300
ITEM: NUMBER OF ATOMS
6
ITEM: BOX BOUNDS pp pp pp
0.0000000000000000e+00 1.0000000000000000e+01
0.0000000000000000e+00 1.0000000000000000e+01
0.0000000000000000e+00 1.0000000000000000e+01
ITEM: ATOMS id type x y z vx vy vz
6 2 5.03949 6.47363 4.50244 -11.7923 5.84833 -10.1074
1 1 5.03321 5.62562 5.19824 6.61908 0.554606 -2.08194
5 2 5.03267 5.86997 6.29892 22.0651 2.81479 3.47361
4 2 4.93935 4.16193 3.68273 -12.9934 -8.40257 -12.048
2 1 4.97162 4.37087 4.79937 -6.94979 -0.0792121 2.8233
3 2 4.93327 3.53583 5.54622 6.66129 -5.92538 9.84766
ITEM: TIMESTEP
52400
ITEM: NUMBER OF ATOMS
6
ITEM: BOX BOUNDS pp pp pp
0.0000000000000000e+00 1.0000000000000000e+01
0.0000000000000000e+00 1.0000000000000000e+01
0.0000000000000000e+00 1.0000000000000000e+01
ITEM: ATOMS id type x y z vx vy vz
6 2 4.99115 6.48525 4.65571 13.5894 -11.9155 10.8768
1 1 5.41298 5.50314 4.86391 2.40163 0.0197865 -5.13049
5 2 6.4731 5.34445 4.78911 -8.09381 -11.1423 -20.763
4 2 3.52098 4.6214 5.23604 27.3359 6.20108 15.5148
2 1 4.58821 4.49967 5.13052 -3.17925 0.444643 5.11877
3 2 5.00302 3.51493 5.38735 -23.5653 11.3225 -5.48896
ITEM: TIMESTEP
52500
ITEM: NUMBER OF ATOMS
6
ITEM: BOX BOUNDS pp pp pp
0.0000000000000000e+00 1.0000000000000000e+01
0.0000000000000000e+00 1.0000000000000000e+01
0.0000000000000000e+00 1.0000000000000000e+01
ITEM: ATOMS id type x y z vx vy vz
6 2 6.28322 5.8141 4.76519 25.541 -6.86348 -6.16208
1 1 5.43348 5.17297 4.52491 -2.4335 -6.46624 -2.82861
5 2 5.31921 4.82125 3.50397 -5.54806 9.34869 -18.4515
4 2 4.67529 5.16982 6.49299 15.1143 -5.48778 23.0674
2 1 4.56348 4.82828 5.47299 1.04611 6.91648 3.10358
3 2 3.76088 4.17955 5.26458 -18.5751 -2.3625 -1.73029
ITEM: TIMESTEP
52600
ITEM: NUMBER OF ATOMS
6
ITEM: BOX BOUNDS pp pp pp
0.0000000000000000e+00 1.0000000000000000e+01
0.0000000000000000e+00 1.0000000000000000e+01
0.0000000000000000e+00 1.0000000000000000e+01
ITEM: ATOMS id type x y z vx vy vz
6 2 5.73874 3.83812 4.20437 -27.2975 -3.21959 -6.51905
1 1 5.16 4.76714 4.40142 -3.8577 -4.67783 -1.69067
5 2 4.78159 5.28966 3.48562 7.2137 -5.47542 4.60907
4 2 5.26079 4.72071 6.50529 -3.29432 -2.02715 8.90202
2 1 4.83885 5.2291 5.60453 4.39305 5.04508 0.661964
3 2 4.23497 6.19597 5.73547 16.9989 6.34602 5.26606
ITEM: TIMESTEP
52700
ITEM: NUMBER OF ATOMS
6
ITEM: BOX BOUNDS pp pp pp
0.0000000000000000e+00 1.0000000000000000e+01
0.0000000000000000e+00 1.0000000000000000e+01
0.0000000000000000e+00 1.0000000000000000e+01
ITEM: ATOMS id type x y z vx vy vz
6 2 3.78008 4.13719 4.78077 -16.1733 17.2895 -1.8574
1 1 4.67427 4.64726 4.52642 -5.0286 -1.96936 2.18922
5 2 5.02655 4.5711 3.53202 -5.08811 -9.75297 0.549752
4 2 5.00726 5.3794 6.49651 18.3299 18.1096 -23.6767
2 1 5.32188 5.35693 5.46959 4.26619 1.28108 -1.08569
3 2 6.23443 5.86192 5.24001 12.0165 -17.4446 11.8346
ITEM: TIMESTEP
52800
ITEM: NUMBER OF ATOMS
6
ITEM: BOX BOUNDS pp pp pp
0.0000000000000000e+00 1.0000000000000000e+01
0.0000000000000000e+00 1.0000000000000000e+01
0.0000000000000000e+00 1.0000000000000000e+01
ITEM: ATOMS id type x y z vx vy vz
6 2 3.5546 5.53936 4.68414 -10.4721 8.57505 -6.65685
1 1 4.378 4.79246 4.85959 -0.763302 1.6226 4.97239
5 2 4.09596 3.71102 4.90086 -25.5063 -6.64511 14.9419
4 2 5.90218 6.27197 5.14374 24.6201 19.6051 -14.3064
2 1 5.6232 5.20442 5.13569 1.78093 -2.23261 -5.55997
3 2 6.43533 4.51442 5.32928 -0.767889 -14.2662 13.0229
ITEM: TIMESTEP
52900
ITEM: NUMBER OF ATOMS
6
ITEM: BOX BOUNDS pp pp pp
0.0000000000000000e+00 1.0000000000000000e+01
0.0000000000000000e+00 1.0000000000000000e+01
0.0000000000000000e+00 1.0000000000000000e+01
ITEM: ATOMS id type x y z vx vy vz
6 2 3.57121 5.47307 4.55066 6.3743 1.80493 20.914
1 1 4.3939 5.19665 5.20955 -1.4991 4.08078 2.87192
5 2 4.16591 5.33387 6.27977 13.9888 24.0042 -22.9312
4 2 5.79108 4.67797 3.70945 -13.2235 -20.2126 11.2448
2 1 5.60946 4.80234 4.78652 0.623348 -4.91549 -2.4262
3 2 6.43415 4.52664 5.50872 3.29583 4.34991 -14.5388
ITEM: TIMESTEP
53000
ITEM: NUMBER OF ATOMS
6
ITEM: BOX BOUNDS pp pp pp
0.0000000000000000e+00 1.0000000000000000e+01
0.0000000000000000e+00 1.0000000000000000e+01
0.0000000000000000e+00 1.0000000000000000e+01
ITEM: ATOMS id type x y z vx vy vz
6 2 3.80971 5.4783 5.81117 -0.984289 5.43611 13.7744
1 1 4.72268 5.55813 5.27184 3.52797 0.913152 1.61128
5 2 5.19417 6.51929 5.26933 14.7009 21.7083 -23.0189
4 2 4.80361 3.47479 4.75847 5.40417 -2.38356 17.0965
2 1 5.27707 4.44566 4.72455 -4.49716 -1.39319 -0.591057
3 2 6.19783 4.48197 4.20582 -7.57172 -19.0407 -20.009
ITEM: TIMESTEP
53100
ITEM: NUMBER OF ATOMS
6
ITEM: BOX BOUNDS pp pp pp
0.0000000000000000e+00 1.0000000000000000e+01
0.0000000000000000e+00 1.0000000000000000e+01
0.0000000000000000e+00 1.0000000000000000e+01
ITEM: ATOMS id type x y z vx vy vz
4 2 5.037 3.51547 5.56292 4.31149 -10.9661 9.27488
2 1 4.80726 4.36767 4.88428 -3.71276 -0.045033 2.93305
3 2 4.19465 4.06029 4.00131 -22.907 8.89495 11.5089
6 2 5.84807 5.93185 6.01563 23.2189 -2.80268 -10.9353
1 1 5.18725 5.63616 5.12013 2.95701 0.199294 -4.06462
5 2 4.98797 6.4464 4.36937 4.38206 3.03561 3.63545
ITEM: TIMESTEP
53200
ITEM: NUMBER OF ATOMS
6
ITEM: BOX BOUNDS pp pp pp
0.0000000000000000e+00 1.0000000000000000e+01
0.0000000000000000e+00 1.0000000000000000e+01
0.0000000000000000e+00 1.0000000000000000e+01
ITEM: ATOMS id type x y z vx vy vz
4 2 4.6087 3.51838 5.18719 -6.48306 17.8471 -3.99535
2 1 4.54264 4.58962 5.29265 -2.82445 2.20371 3.84402
3 2 3.66775 4.98089 5.81852 15.6585 4.9927 14.6507
6 2 6.31597 5.06817 4.1946 -30.3183 -2.41231 -16.3863
1 1 5.45792 5.40572 4.71011 3.78027 -2.20992 -3.12843
5 2 5.40335 6.48773 4.76861 9.75329 -20.3535 -2.79601
ITEM: TIMESTEP
53300
ITEM: NUMBER OF ATOMS
6
ITEM: BOX BOUNDS pp pp pp
0.0000000000000000e+00 1.0000000000000000e+01
0.0000000000000000e+00 1.0000000000000000e+01
0.0000000000000000e+00 1.0000000000000000e+01
ITEM: ATOMS id type x y z vx vy vz
4 2 3.51853 4.87535 5.54165 -8.32665 26.1609 12.7847
2 1 4.61167 4.96231 5.54968 2.25979 2.64901 -0.373835
3 2 5.03971 5.05768 6.54144 13.5027 2.29405 11.2422
6 2 4.95807 4.93295 3.44301 -23.3903 4.5226 -11.9204
1 1 5.39016 5.03876 4.45 -3.23361 -3.68592 -0.870341
5 2 6.46427 5.12085 4.47947 29.8184 -20.6216 2.71927
ITEM: TIMESTEP
53400
ITEM: NUMBER OF ATOMS
6
ITEM: BOX BOUNDS pp pp pp
0.0000000000000000e+00 1.0000000000000000e+01
0.0000000000000000e+00 1.0000000000000000e+01
0.0000000000000000e+00 1.0000000000000000e+01
ITEM: ATOMS id type x y z vx vy vz
4 2 4.93483 6.41825 5.68781 26.3404 1.12071 -9.5559
2 1 5.02739 5.31305 5.5897 3.6896 2.56545 -0.0404895
3 2 5.07099 4.80797 6.57076 1.44792 1.42554 -15.6547
6 2 4.88483 5.21936 3.41815 1.59206 -1.33078 4.48853
1 1 4.9785 4.68759 4.40653 -3.84946 -3.77715 1.40463
5 2 5.04162 3.54633 4.37001 -27.4754 13.2232 4.46692
ITEM: TIMESTEP
53500
ITEM: NUMBER OF ATOMS
6
ITEM: BOX BOUNDS pp pp pp
0.0000000000000000e+00 1.0000000000000000e+01
0.0000000000000000e+00 1.0000000000000000e+01
0.0000000000000000e+00 1.0000000000000000e+01
ITEM: ATOMS id type x y z vx vy vz
4 2 6.47617 5.3331 5.0881 0.799252 -22.1695 -15.4324
2 1 5.45792 5.3178 5.37939 1.80136 -1.35772 -1.68818
3 2 5.17876 5.92017 6.2324 2.72341 15.483 -8.04973
6 2 4.80748 4.11786 3.77644 -16.3686 -8.77647 25.5017
1 1 4.54471 4.67903 4.62489 -0.872078 0.544252 0.8946
5 2 3.50857 4.66628 4.85381 1.77258 25.1563 7.43687
ITEM: TIMESTEP
53600
ITEM: NUMBER OF ATOMS
6
ITEM: BOX BOUNDS pp pp pp
0.0000000000000000e+00 1.0000000000000000e+01
0.0000000000000000e+00 1.0000000000000000e+01
0.0000000000000000e+00 1.0000000000000000e+01
ITEM: ATOMS id type x y z vx vy vz
4 2 6.38798 4.37237 5.48361 -0.870267 -5.18902 -3.91412
2 1 5.66109 5.08334 4.99142 -2.19056 -4.39144 -1.59778
3 2 6.11022 5.95993 4.47738 2.24221 -8.45964 -29.5696
6 2 3.88192 4.04047 5.53471 -0.661194 -5.40232 33.8088
1 1 4.33765 4.91955 5.00896 2.20821 4.55163 2.82794
5 2 3.63735 5.59247 4.50161 -0.921056 17.142 -14.9837
ITEM: TIMESTEP
53700
ITEM: NUMBER OF ATOMS
6
ITEM: BOX BOUNDS pp pp pp
0.0000000000000000e+00 1.0000000000000000e+01
0.0000000000000000e+00 1.0000000000000000e+01
0.0000000000000000e+00 1.0000000000000000e+01
ITEM: ATOMS id type x y z vx vy vz
4 2 6.47918 4.66164 5.18523 -7.63001 5.1358 -8.52418
2 1 5.49739 4.64427 4.73764 -3.03753 -3.72024 -1.42977
3 2 5.4453 4.10494 3.79878 -22.2685 -2.94403 30.3746
6 2 4.62269 5.92364 6.20384 18.464 1.98824 -21.0453
1 1 4.49981 5.35516 5.26472 2.73879 3.57248 -0.239474
5 2 3.48853 5.3162 4.78575 14.9943 -2.41937 19.0858
ITEM: TIMESTEP
53800
ITEM: NUMBER OF ATOMS
6
ITEM: BOX BOUNDS pp pp pp
0.0000000000000000e+00 1.0000000000000000e+01
0.0000000000000000e+00 1.0000000000000000e+01
0.0000000000000000e+00 1.0000000000000000e+01
ITEM: ATOMS id type x y z vx vy vz
4 2 5.66572 4.28198 3.82963 -19.882 8.21972 -19.2812
2 1 5.12737 4.39197 4.74623 -3.75139 0.733532 3.3039
3 2 4.73433 3.50451 5.24364 -13.4349 -14.7636 25.0879
6 2 5.20056 6.4863 4.75763 2.12363 2.42645 -7.04205
1 1 4.87879 5.60635 5.25535 4.56032 -0.49899 -4.52876
5 2 4.32829 5.74691 6.15203 21.5539 1.32263 15.8308
ITEM: TIMESTEP
53900
ITEM: NUMBER OF ATOMS
6
ITEM: BOX BOUNDS pp pp pp
0.0000000000000000e+00 1.0000000000000000e+01
0.0000000000000000e+00 1.0000000000000000e+01
0.0000000000000000e+00 1.0000000000000000e+01
ITEM: ATOMS id type x y z vx vy vz
4 2 3.66037 4.29082 4.47804 -9.31157 8.17371 24.4841
2 1 4.66467 4.4275 5.0224 -2.53831 3.75944 3.28529
3 2 5.12698 3.55702 5.53084 -4.75873 6.84842 -7.28558
6 2 4.87812 6.48175 4.5075 -9.12918 -3.3552 -1.81808
1 1 5.33751 5.56909 4.97578 3.19825 -3.93417 -3.58593
5 2 6.31092 5.71059 5.50703 15.3356 -9.5849 -11.798
ITEM: TIMESTEP
54000
ITEM: NUMBER OF ATOMS
6
ITEM: BOX BOUNDS pp pp pp
0.0000000000000000e+00 1.0000000000000000e+01
0.0000000000000000e+00 1.0000000000000000e+01
0.0000000000000000e+00 1.0000000000000000e+01
ITEM: ATOMS id type x y z vx vy vz
4 2 4.17624 5.2222 6.22476 21.0147 0.15899 3.23231
2 1 4.5474 4.71026 5.39351 1.02732 2.55263 3.8613
3 2 4.15435 3.72904 5.20291 -12.7171 26.7601 -2.3361
6 2 5.82379 6.27813 4.83612 13.9259 -21.308 1.38604
1 1 5.45575 5.29217 4.60548 -1.74306 -3.05507 -4.96655
5 2 5.8105 4.74135 3.74995 -13.6948 0.375996 10.888
ITEM: TIMESTEP
54100
ITEM: NUMBER OF ATOMS
6
ITEM: BOX BOUNDS pp pp pp
0.0000000000000000e+00 1.0000000000000000e+01
0.0000000000000000e+00 1.0000000000000000e+01
0.0000000000000000e+00 1.0000000000000000e+01
ITEM: ATOMS id type x y z vx vy vz
5 2 4.76143 5.16532 3.48228 -10.571 4.39116 -12.7741
6 2 6.28022 4.48375 4.33521 0.253952 -24.414 -13.4655
1 1 5.27269 4.87281 4.40836 -3.7161 -3.63125 2.41043
2 1 4.72716 5.12417 5.59468 4.72375 3.44483 -0.739117
3 2 3.71477 5.55678 5.62203 -14.3671 34.2799 0.768517
4 2 5.24772 4.82974 6.52608 12.6769 -12.0357 5.55566
ITEM: TIMESTEP
54200
ITEM: NUMBER OF ATOMS
6
ITEM: BOX BOUNDS pp pp pp
0.0000000000000000e+00 1.0000000000000000e+01
0.0000000000000000e+00 1.0000000000000000e+01
0.0000000000000000e+00 1.0000000000000000e+01
ITEM: ATOMS id type x y z vx vy vz
5 2 4.99191 5.01575 3.4562 3.38484 -15.0054 5.77775
6 2 4.33774 3.63594 4.59383 -7.3328 15.1968 13.5461
1 1 4.80714 4.65055 4.47312 -6.43206 0.292131 -0.225123
2 1 5.19025 5.35495 5.52903 6.31482 0.213999 -0.79194
3 2 5.70177 6.33655 5.37467 6.89081 -28.4996 -1.55176
4 2 5.00206 4.94575 6.55146 -1.5458 22.2771 -5.65272
ITEM: TIMESTEP
54300
ITEM: NUMBER OF ATOMS
6
ITEM: BOX BOUNDS pp pp pp
0.0000000000000000e+00 1.0000000000000000e+01
0.0000000000000000e+00 1.0000000000000000e+01
0.0000000000000000e+00 1.0000000000000000e+01
ITEM: ATOMS id type x y z vx vy vz
5 2 4.52698 3.82467 4.17971 -8.28449 -4.70077 21.5265
6 2 3.50847 5.21919 4.87214 -9.8383 11.1558 -0.618267
1 1 4.43719 4.72819 4.7552 -2.99717 2.21747 2.92882
2 1 5.55974 5.27065 5.2436 2.72832 -2.41169 -3.83644
3 2 6.50516 4.8048 5.17982 6.36309 -13.1269 7.54342
4 2 5.49837 6.16475 5.7844 14.9634 8.98622 -17.6363
ITEM: TIMESTEP
54400
ITEM: NUMBER OF ATOMS
6
ITEM: BOX BOUNDS pp pp pp
0.0000000000000000e+00 1.0000000000000000e+01
0.0000000000000000e+00 1.0000000000000000e+01
0.0000000000000000e+00 1.0000000000000000e+01
ITEM: ATOMS id type x y z vx vy vz
5 2 3.88487 4.57966 6.03787 -6.40033 13.202 20.4547
6 2 3.6917 5.61504 4.44397 -9.79046 -6.7469 5.75052
1 1 4.35538 5.05936 5.14225 0.988843 6.47216 1.87752
2 1 5.64556 4.94175 4.85777 -0.485036 -6.44538 -3.08187
3 2 6.30251 4.40689 5.59515 11.5963 0.441133 9.64835
4 2 6.11209 5.3847 3.92461 -1.4089 -7.21546 -21.5025
ITEM: TIMESTEP
54500
ITEM: NUMBER OF ATOMS
6
ITEM: BOX BOUNDS pp pp pp
0.0000000000000000e+00 1.0000000000000000e+01
0.0000000000000000e+00 1.0000000000000000e+01
0.0000000000000000e+00 1.0000000000000000e+01
ITEM: ATOMS id type x y z vx vy vz
5 2 5.01464 6.31969 5.78946 -3.2043 -1.56371 -20.2302
6 2 3.52667 5.40892 5.21968 9.47128 -3.62534 19.278
1 1 4.61667 5.46549 5.28426 3.71054 7.36031 1.45438
2 1 5.38785 4.53502 4.7123 -3.29096 -6.76223 -1.22569
3 2 6.47286 4.60731 4.78227 -23.666 -8.05229 -19.0849
4 2 4.93437 3.65765 4.2513 12.3993 6.11466 17.312
ITEM: TIMESTEP
54600
ITEM: NUMBER OF ATOMS
6
ITEM: BOX BOUNDS pp pp pp
0.0000000000000000e+00 1.0000000000000000e+01
0.0000000000000000e+00 1.0000000000000000e+01
0.0000000000000000e+00 1.0000000000000000e+01
ITEM: ATOMS id type x y z vx vy vz
5 2 5.12926 6.42788 4.43963 -8.37274 10.1587 -14.2433
6 2 5.01537 5.9177 6.24124 23.4254 14.1992 14.6017
1 1 5.05298 5.6354 5.20477 5.79147 0.444051 -1.62894
2 1 4.94579 4.36674 4.79866 -6.21649 0.782856 1.40649
3 2 4.97356 4.06545 3.7769 -15.7974 -19.5216 -9.06757
4 2 4.89875 3.56306 5.50318 5.80934 -19.4563 11.3599
ITEM: TIMESTEP
54700
ITEM: NUMBER OF ATOMS
6
ITEM: BOX BOUNDS pp pp pp
0.0000000000000000e+00 1.0000000000000000e+01
0.0000000000000000e+00 1.0000000000000000e+01
0.0000000000000000e+00 1.0000000000000000e+01
ITEM: ATOMS id type x y z vx vy vz
5 2 5.06788 6.50818 4.55127 19.3116 2.08936 10.5746
6 2 6.53135 5.32012 4.8249 -12.5828 1.30851 -22.98
1 1 5.41516 5.49812 4.8469 3.64982 -2.34893 -5.70489
2 1 4.58572 4.50352 5.15085 -3.30792 1.5159 6.33876
3 2 3.45887 4.67144 5.19596 -4.30035 5.36233 12.2678
4 2 4.93377 3.48025 5.45647 -6.50251 1.16629 -7.41563
ITEM: TIMESTEP
54800
ITEM: NUMBER OF ATOMS
6
ITEM: BOX BOUNDS pp pp pp
0.0000000000000000e+00 1.0000000000000000e+01
0.0000000000000000e+00 1.0000000000000000e+01
0.0000000000000000e+00 1.0000000000000000e+01
ITEM: ATOMS id type x y z vx vy vz
5 2 6.23024 5.83247 4.64805 9.05066 -22.1436 -12.4242
6 2 5.34651 4.78392 3.52136 -18.2344 10.4649 -10.5789
1 1 5.43284 5.14965 4.51089 1.11686 -3.58938 -1.59988
2 1 4.56486 4.85208 5.49253 -1.00794 3.71488 2.51557
3 2 4.67174 5.23234 6.47078 11.097 -9.55845 -8.87261
4 2 3.78138 4.13017 5.32081 -3.21117 19.7418 20.9643
ITEM: TIMESTEP
54900
ITEM: NUMBER OF ATOMS
6
ITEM: BOX BOUNDS pp pp pp
0.0000000000000000e+00 1.0000000000000000e+01
0.0000000000000000e+00 1.0000000000000000e+01