ITEM: TIMESTEP
49600
ITEM: NUMBER OF ATOMS
6
ITEM: BOX BOUNDS pp pp pp
0.0000000000000000e+00 1.0000000000000000e+01
0.0000000000000000e+00 1.0000000000000000e+01
0.0000000000000000e+00 1.0000000000000000e+01
ITEM: ATOMS id type x y z vx vy vz
1 1 4.84584 4.6501 4.44117 -6.71522 -0.13544 2.56912
6 2 4.26584 3.76622 4.51483 -16.0819 7.64004 15.2006
5 2 5.08367 4.99454 3.47552 14.3635 -6.36983 0.653662
4 2 4.89187 5.05177 6.56402 -11.8435 3.53478 13.0247
2 1 5.15784 5.34499 5.55363 5.78803 -0.520046 -4.48855
3 2 5.71711 6.24563 5.50941 24.6103 3.00583 -6.00686
ITEM: TIMESTEP
49700
ITEM: NUMBER OF ATOMS
6
ITEM: BOX BOUNDS pp pp pp
0.0000000000000000e+00 1.0000000000000000e+01
0.0000000000000000e+00 1.0000000000000000e+01
0.0000000000000000e+00 1.0000000000000000e+01
ITEM: ATOMS id type x y z vx vy vz
1 1 4.4556 4.71162 4.74856 -0.0673879 0.881283 5.90437
6 2 3.48716 5.26994 4.65634 -3.44375 24.3823 -7.79091
5 2 4.48285 3.699 4.26787 -15.3503 -9.36787 11.5074
4 2 5.52941 6.32025 5.68628 4.06689 3.46766 -17.9212
2 1 5.54085 5.28609 5.25621 2.26571 -0.784424 -4.5468
3 2 6.54523 4.73762 5.3344 -11.4683 -19.6363 -1.97229
ITEM: TIMESTEP
49800
ITEM: NUMBER OF ATOMS
6
ITEM: BOX BOUNDS pp pp pp
0.0000000000000000e+00 1.0000000000000000e+01
0.0000000000000000e+00 1.0000000000000000e+01
0.0000000000000000e+00 1.0000000000000000e+01
ITEM: ATOMS id type x y z vx vy vz
1 1 4.35296 5.06614 5.13217 0.303482 7.48803 2.5886
6 2 3.62167 5.44095 4.42665 15.394 -20.3651 7.66389
5 2 3.94614 4.82507 6.11826 21.6861 14.2875 -0.0481338
4 2 6.03569 5.16197 3.89342 -20.4762 -21.9039 7.26954
2 1 5.65372 4.93627 4.86593 -0.990433 -5.80384 -3.23814
3 2 6.31921 4.54287 5.58604 -8.41813 7.91259 -7.14534
ITEM: TIMESTEP
49900
ITEM: NUMBER OF ATOMS
6
ITEM: BOX BOUNDS pp pp pp
0.0000000000000000e+00 1.0000000000000000e+01
0.0000000000000000e+00 1.0000000000000000e+01
0.0000000000000000e+00 1.0000000000000000e+01
ITEM: ATOMS id type x y z vx vy vz
1 1 4.62683 5.47251 5.28656 5.62654 1.57624 0.00977769
6 2 3.56337 5.28979 5.45815 -5.66624 -10.347 15.4577
5 2 5.01847 6.44533 5.48181 20.4816 13.1637 -19.4313
4 2 5.00643 3.52786 4.46203 -17.3471 -28.9918 17.1857
2 1 5.37122 4.53057 4.71968 -6.41896 0.609622 -0.0338438
3 2 6.43732 4.6998 4.52546 11.9742 0.128204 -12.9254
ITEM: TIMESTEP
50000
ITEM: NUMBER OF ATOMS
6
ITEM: BOX BOUNDS pp pp pp
0.0000000000000000e+00 1.0000000000000000e+01
0.0000000000000000e+00 1.0000000000000000e+01
0.0000000000000000e+00 1.0000000000000000e+01
ITEM: ATOMS id type x y z vx vy vz
1 1 5.09088 5.62793 5.18512 5.63201 -1.01512 -4.69046
6 2 5.41865 5.90708 6.20179 17.9548 -0.983595 -10.7369
5 2 4.90766 6.45922 4.44035 -4.45607 -6.55379 5.51954
4 2 5.05384 3.54799 5.56474 8.15343 15.7436 -5.923
2 1 4.91532 4.37392 4.81472 -6.41372 -1.23229 4.11146
3 2 4.54839 4.06318 3.79681 -12.3372 18.5741 18.0397
ITEM: TIMESTEP
50100
ITEM: NUMBER OF ATOMS
6
ITEM: BOX BOUNDS pp pp pp
0.0000000000000000e+00 1.0000000000000000e+01
0.0000000000000000e+00 1.0000000000000000e+01
0.0000000000000000e+00 1.0000000000000000e+01
ITEM: ATOMS id type x y z vx vy vz
2 1 4.5663 4.53435 5.20103 -2.34294 4.96159 3.03876
3 2 3.64651 4.81701 5.62276 9.52367 8.86939 25.3902
5 2 5.19095 6.49628 4.83447 1.42934 -1.85587 10.0272
4 2 4.84754 3.5277 5.19203 -3.34466 5.50358 -3.38712
1 1 5.42798 5.46033 4.79652 3.00113 -5.50002 -4.47843
6 2 6.38555 5.22194 4.38181 -15.4514 -6.10113 -14.8751
ITEM: TIMESTEP
50200
ITEM: NUMBER OF ATOMS
6
ITEM: BOX BOUNDS pp pp pp
0.0000000000000000e+00 1.0000000000000000e+01
0.0000000000000000e+00 1.0000000000000000e+01
0.0000000000000000e+00 1.0000000000000000e+01
ITEM: ATOMS id type x y z vx vy vz
2 1 4.58847 4.90371 5.50275 2.86217 6.63 -0.24256
3 2 4.95806 5.00479 6.5535 14.5141 -12.2743 17.4357
5 2 6.48386 5.3301 4.62849 6.79311 -18.6353 -3.78009
4 2 3.4947 4.65696 5.36208 -17.4724 11.8731 8.36956
1 1 5.41753 5.09786 4.49618 -1.41955 -5.13908 -0.720927
6 2 4.99427 4.98899 3.47039 -21.0253 1.27067 -10.5442
ITEM: TIMESTEP
50300
ITEM: NUMBER OF ATOMS
6
ITEM: BOX BOUNDS pp pp pp
0.0000000000000000e+00 1.0000000000000000e+01
0.0000000000000000e+00 1.0000000000000000e+01
0.0000000000000000e+00 1.0000000000000000e+01
ITEM: ATOMS id type x y z vx vy vz
2 1 4.95484 5.28466 5.59261 5.3657 4.40128 1.24961
3 2 5.06873 4.71436 6.53428 -8.94359 10.893 -26.6644
5 2 5.1536 3.62147 4.34047 -26.3381 7.32355 -5.00156
4 2 4.88848 6.37435 5.66966 25.026 -15.6442 -3.54902
1 1 5.0397 4.7146 4.4038 -4.54483 -3.31058 0.839686
6 2 4.95662 5.29831 3.50006 0.474133 -15.5693 10.3188
ITEM: TIMESTEP
50400
ITEM: NUMBER OF ATOMS
6
ITEM: BOX BOUNDS pp pp pp
0.0000000000000000e+00 1.0000000000000000e+01
0.0000000000000000e+00 1.0000000000000000e+01
0.0000000000000000e+00 1.0000000000000000e+01
ITEM: ATOMS id type x y z vx vy vz
2 1 5.41893 5.33475 5.39751 2.35599 0.153403 -4.43761
3 2 5.03758 5.86705 6.22499 11.0599 24.5994 11.6435
5 2 3.52833 4.65614 4.80302 -20.0633 20.2231 -0.0693354
4 2 6.4559 5.29206 5.20218 9.05444 -25.9282 -1.67348
1 1 4.58505 4.67262 4.60396 -1.48891 -0.351589 3.71892
6 2 4.93314 4.09656 3.75405 -10.3833 -16.5327 -1.33662
ITEM: TIMESTEP
50500
ITEM: NUMBER OF ATOMS
6
ITEM: BOX BOUNDS pp pp pp
0.0000000000000000e+00 1.0000000000000000e+01
0.0000000000000000e+00 1.0000000000000000e+01
0.0000000000000000e+00 1.0000000000000000e+01
ITEM: ATOMS id type x y z vx vy vz
2 1 5.65013 5.10562 5.01222 0.53576 -4.46185 -4.55621
3 2 6.10302 5.93567 4.39922 8.53641 -14.4437 -15.1269
5 2 3.6523 5.59421 4.46369 4.8913 -3.41955 3.57507
4 2 6.3653 4.41837 5.57967 13.8659 0.264296 8.1465
1 1 4.34708 4.89336 4.9839 -2.87686 4.31338 3.25478
6 2 3.91501 4.06349 5.60542 0.603148 19.3681 18.9133
ITEM: TIMESTEP
50600
ITEM: NUMBER OF ATOMS
6
ITEM: BOX BOUNDS pp pp pp
0.0000000000000000e+00 1.0000000000000000e+01
0.0000000000000000e+00 1.0000000000000000e+01
0.0000000000000000e+00 1.0000000000000000e+01
ITEM: ATOMS id type x y z vx vy vz
2 1 5.50734 4.65621 4.74157 0.405617 -4.35093 -2.75796
3 2 5.37839 3.95394 3.91964 -10.8246 -6.9206 24.4835
5 2 3.52779 5.21691 4.82565 -0.746587 11.8445 17.4063
4 2 6.49579 4.75583 5.13064 -17.3807 -6.10681 -20.6512
1 1 4.49192 5.34966 5.26216 1.41473 2.547 2.68926
6 2 4.60924 6.00293 6.08144 7.26052 22.6787 -20.4199
ITEM: TIMESTEP
50700
ITEM: NUMBER OF ATOMS
6
ITEM: BOX BOUNDS pp pp pp
0.0000000000000000e+00 1.0000000000000000e+01
0.0000000000000000e+00 1.0000000000000000e+01
0.0000000000000000e+00 1.0000000000000000e+01
ITEM: ATOMS id type x y z vx vy vz
2 1 5.11428 4.39055 4.74711 -4.99149 -1.97394 1.83408
3 2 4.89812 3.5142 5.32489 -2.79109 -21.8458 14.5806
5 2 4.54948 5.77793 6.29633 16.5623 12.6665 23.232
4 2 5.46037 4.26769 3.71985 -16.7425 -8.73812 -18.5792
1 1 4.88113 5.60187 5.25002 5.86437 2.01997 -2.53908
6 2 5.14908 6.53006 4.69485 -7.4299 17.3689 -10.8325
ITEM: TIMESTEP
50800
ITEM: NUMBER OF ATOMS
6
ITEM: BOX BOUNDS pp pp pp
0.0000000000000000e+00 1.0000000000000000e+01
0.0000000000000000e+00 1.0000000000000000e+01
0.0000000000000000e+00 1.0000000000000000e+01
ITEM: ATOMS id type x y z vx vy vz
2 1 4.64587 4.43866 5.04789 -4.43909 0.0361304 2.85056
3 2 5.12566 3.47939 5.389 -15.4699 7.25835 -2.99201
5 2 6.43399 5.61402 5.1918 -12.6103 -10.7207 -34.9662
4 2 3.55977 4.36345 4.78523 -6.47969 -5.81209 25.8397
1 1 5.35367 5.56429 4.9551 6.45799 1.69371 -2.29304
6 2 4.88844 6.50757 4.60015 10.5024 -11.3385 5.47498
ITEM: TIMESTEP
50900
ITEM: NUMBER OF ATOMS
6
ITEM: BOX BOUNDS pp pp pp
0.0000000000000000e+00 1.0000000000000000e+01
0.0000000000000000e+00 1.0000000000000000e+01
0.0000000000000000e+00 1.0000000000000000e+01
ITEM: ATOMS id type x y z vx vy vz
2 1 4.55106 4.73434 5.41875 -1.32316 2.45083 4.46645
3 2 3.87385 3.94557 5.1733 -17.0298 14.2413 8.76055
5 2 5.58588 4.84731 3.60705 -12.2382 5.64435 -21.6685
4 2 4.38338 5.1423 6.38294 13.7711 0.188273 0.51153
1 1 5.45418 5.26748 4.57946 0.557609 -3.49083 -2.48613
6 2 6.09677 6.04269 4.85982 24.6193 -7.68118 -11.2013
ITEM: TIMESTEP
51000
ITEM: NUMBER OF ATOMS
6
ITEM: BOX BOUNDS pp pp pp
0.0000000000000000e+00 1.0000000000000000e+01
0.0000000000000000e+00 1.0000000000000000e+01
0.0000000000000000e+00 1.0000000000000000e+01
ITEM: ATOMS id type x y z vx vy vz
2 1 4.77708 5.1728 5.60689 2.29999 3.52078 1.08345
3 2 3.98477 5.93485 5.73341 10.5578 28.9647 8.05752
5 2 4.86472 5.25044 3.42064 -0.367842 4.84538 -10.8741
4 2 5.17835 4.71678 6.54421 9.28038 -1.76593 7.88288
1 1 5.21998 4.83436 4.39768 -2.67899 -4.21788 -0.34783
6 2 6.00965 4.01221 4.24912 -14.9542 -23.7375 -13.8319
ITEM: TIMESTEP
51100
ITEM: NUMBER OF ATOMS
6
ITEM: BOX BOUNDS pp pp pp
0.0000000000000000e+00 1.0000000000000000e+01
0.0000000000000000e+00 1.0000000000000000e+01
0.0000000000000000e+00 1.0000000000000000e+01
ITEM: ATOMS id type x y z vx vy vz
1 1 4.72746 4.65017 4.49786 -3.76954 -1.32043 -2.50012
6 2 3.89149 3.98459 4.62861 -3.97769 29.3705 11.6136
5 2 5.11926 4.67769 3.48097 -13.1744 -17.6856 25.9755
4 2 4.8975 5.31825 6.52904 15.9373 21.7077 -6.944
2 1 5.27402 5.34554 5.50394 3.55854 0.770676 -0.0122915
3 2 6.07651 6.07023 5.34175 3.72909 -26.8416 -0.706994
ITEM: TIMESTEP
51200
ITEM: NUMBER OF ATOMS
6
ITEM: BOX BOUNDS pp pp pp
0.0000000000000000e+00 1.0000000000000000e+01
0.0000000000000000e+00 1.0000000000000000e+01
0.0000000000000000e+00 1.0000000000000000e+01
ITEM: ATOMS id type x y z vx vy vz
1 1 4.38942 4.77233 4.82606 -0.19623 4.42773 3.78781
6 2 3.55481 5.40692 4.61385 -9.58639 14.0222 -5.31583
5 2 4.19531 3.71354 4.77889 -20.0543 -22.7497 20.6262
4 2 5.82257 6.27643 5.2485 10.3208 7.78668 -28.3898
2 1 5.60551 5.22606 5.17454 0.990582 -3.11528 -2.98286
3 2 6.49022 4.62188 5.35346 9.85432 -14.6984 3.48755
ITEM: TIMESTEP
51300
ITEM: NUMBER OF ATOMS
6
ITEM: BOX BOUNDS pp pp pp
0.0000000000000000e+00 1.0000000000000000e+01
0.0000000000000000e+00 1.0000000000000000e+01
0.0000000000000000e+00 1.0000000000000000e+01
ITEM: ATOMS id type x y z vx vy vz
1 1 4.39526 5.18197 5.20509 2.16728 3.98471 1.31652
6 2 3.5216 5.36426 4.48408 -4.41444 -0.267829 10.9645
5 2 4.06163 5.28206 6.282 14.2669 18.3822 -4.98083
4 2 5.91729 4.75918 3.71019 -20.6801 -25.0757 2.06463
2 1 5.61149 4.81581 4.7952 -1.18482 -3.57473 -1.55782
3 2 6.42139 4.62059 5.52213 -0.879554 2.07594 -5.17285
ITEM: TIMESTEP
51400
ITEM: NUMBER OF ATOMS
6
ITEM: BOX BOUNDS pp pp pp
0.0000000000000000e+00 1.0000000000000000e+01
0.0000000000000000e+00 1.0000000000000000e+01
0.0000000000000000e+00 1.0000000000000000e+01
ITEM: ATOMS id type x y z vx vy vz
1 1 4.70731 5.5402 5.27772 3.4252 4.28444 -1.11984
6 2 3.81957 5.50352 5.84399 29.0725 -4.77546 6.45957
5 2 5.12767 6.51943 5.21132 5.05088 -13.2887 -11.4008
4 2 4.85423 3.48772 4.75122 -0.7685 -7.37122 13.8093
2 1 5.29299 4.45658 4.7256 -3.9852 -1.65623 1.69655
3 2 6.19737 4.52728 4.15561 -26.6819 -5.88256 -15.7401
ITEM: TIMESTEP
51500
ITEM: NUMBER OF ATOMS
6
ITEM: BOX BOUNDS pp pp pp
0.0000000000000000e+00 1.0000000000000000e+01
0.0000000000000000e+00 1.0000000000000000e+01
0.0000000000000000e+00 1.0000000000000000e+01
ITEM: ATOMS id type x y z vx vy vz
1 1 5.2137 5.6297 5.10603 3.17234 -4.44652 -2.67663
6 2 5.84421 5.90414 5.9684 31.4137 2.12545 3.98397
5 2 4.86541 6.45349 4.47409 -6.55991 10.0709 -19.4686
4 2 5.11456 3.52651 5.5223 8.21534 1.66455 3.84296
2 1 4.79019 4.37578 4.89357 -2.93273 3.11868 3.27551
3 2 4.13184 4.05016 4.04184 -35.9243 1.9617 4.50542
ITEM: TIMESTEP
51600
ITEM: NUMBER OF ATOMS
6
ITEM: BOX BOUNDS pp pp pp
0.0000000000000000e+00 1.0000000000000000e+01
0.0000000000000000e+00 1.0000000000000000e+01
0.0000000000000000e+00 1.0000000000000000e+01
ITEM: ATOMS id type x y z vx vy vz
1 1 5.4449 5.3949 4.70088 -0.484555 -2.95042 -4.98069
6 2 6.25016 4.98096 4.04144 -18.7858 -3.9013 0.703805
5 2 5.50328 6.50548 4.85441 14.0229 -21.3124 3.744
4 2 4.48588 3.51103 5.12097 -10.8986 21.713 -9.5052
2 1 4.55211 4.60214 5.30221 -0.908215 2.57063 5.23647
3 2 3.79874 5.03736 5.94811 32.2578 8.02625 2.00953
ITEM: TIMESTEP
51700
ITEM: NUMBER OF ATOMS
6
ITEM: BOX BOUNDS pp pp pp
0.0000000000000000e+00 1.0000000000000000e+01
0.0000000000000000e+00 1.0000000000000000e+01
0.0000000000000000e+00 1.0000000000000000e+01
ITEM: ATOMS id type x y z vx vy vz
1 1 5.36132 4.9826 4.43487 -1.71014 -3.42104 -0.164742
6 2 4.91835 5.0849 3.47559 -22.846 0.856883 6.67512
5 2 6.41449 4.93123 4.45062 -2.57814 -25.8755 0.285101
4 2 3.58617 5.1099 5.51876 -13.5055 30.8645 7.37814
2 1 4.6378 5.01621 5.56666 3.78889 3.4388 -1.42845
3 2 5.0938 4.88768 6.53851 14.1591 -6.05752 4.64622
ITEM: TIMESTEP
51800
ITEM: NUMBER OF ATOMS
6
ITEM: BOX BOUNDS pp pp pp
0.0000000000000000e+00 1.0000000000000000e+01
0.0000000000000000e+00 1.0000000000000000e+01
0.0000000000000000e+00 1.0000000000000000e+01
ITEM: ATOMS id type x y z vx vy vz
1 1 4.90925 4.66867 4.42815 -5.91517 1.23242 2.13834
6 2 5.01527 5.19129 3.45313 6.92529 -0.992402 -8.11773
5 2 4.74212 3.55381 4.45382 -18.97 -7.58439 20.1251
4 2 5.3166 6.44717 5.58398 19.1187 -7.79794 -14.4361
2 1 5.08744 5.3275 5.56623 6.05722 -0.0510342 -2.23819
3 2 4.96791 4.85296 6.57785 -8.76675 2.29724 3.61849
ITEM: TIMESTEP
51900
ITEM: NUMBER OF ATOMS
6
ITEM: BOX BOUNDS pp pp pp
0.0000000000000000e+00 1.0000000000000000e+01
0.0000000000000000e+00 1.0000000000000000e+01
0.0000000000000000e+00 1.0000000000000000e+01
ITEM: ATOMS id type x y z vx vy vz
1 1 4.4966 4.69622 4.68791 -3.6587 2.29849 2.60135
6 2 4.7055 3.90568 3.95828 -10.2953 -1.06024 32.1394
5 2 3.46781 4.98196 4.82937 14.1443 9.52033 -1.81123
4 2 6.52001 4.99452 5.20708 -13.4443 -17.6151 -8.2049
2 1 5.5057 5.30462 5.3141 4.07803 -0.936105 -1.55669
3 2 5.2817 6.10734 5.98306 4.59867 -7.07935 -34.5716
ITEM: TIMESTEP
52000
ITEM: NUMBER OF ATOMS
6
ITEM: BOX BOUNDS pp pp pp
0.0000000000000000e+00 1.0000000000000000e+01
0.0000000000000000e+00 1.0000000000000000e+01
0.0000000000000000e+00 1.0000000000000000e+01
ITEM: ATOMS id type x y z vx vy vz
1 1 4.34429 4.99653 5.09565 1.52482 6.33953 2.24614
6 2 3.8697 4.38766 5.84614 5.10162 3.90067 34.5873
5 2 3.69072 5.54675 4.42443 -0.877969 1.4418 -12.5264
4 2 6.2731 4.45383 5.60902 11.0595 -7.20672 11.2098
2 1 5.65854 5.00496 4.90509 -3.26458 -6.21182 -2.37329
3 2 6.13521 5.59366 4.11336 5.44798 0.342457 -31.7557
ITEM: TIMESTEP
52100
ITEM: NUMBER OF ATOMS
6
ITEM: BOX BOUNDS pp pp pp
0.0000000000000000e+00 1.0000000000000000e+01
0.0000000000000000e+00 1.0000000000000000e+01
0.0000000000000000e+00 1.0000000000000000e+01
ITEM: ATOMS id type x y z vx vy vz
2 1 5.42267 4.57816 4.72714 -4.20236 -6.17253 -0.753464
5 2 3.47741 5.27572 5.10346 4.74341 -12.0412 16.7313
3 2 5.08589 3.69318 4.12615 -3.43004 4.04958 15.6358
6 2 4.94935 6.28303 5.88594 5.48461 1.66203 -18.3818
4 2 6.54042 4.68529 4.86058 -15.6383 1.99899 -14.0042
1 1 4.57307 5.42708 5.27501 4.94423 6.53595 0.755043
ITEM: TIMESTEP
52200
ITEM: NUMBER OF ATOMS
6
ITEM: BOX BOUNDS pp pp pp
0.0000000000000000e+00 1.0000000000000000e+01
0.0000000000000000e+00 1.0000000000000000e+01
0.0000000000000000e+00 1.0000000000000000e+01
ITEM: ATOMS id type x y z vx vy vz
2 1 4.97968 4.37351 4.7791 -5.59854 -1.94418 1.19604
5 2 4.92913 5.87114 6.24352 29.7335 10.7832 -11.0748
3 2 4.95279 3.59159 5.48669 1.99216 5.91955 8.59107
6 2 5.06018 6.42454 4.50173 -8.76405 1.38101 -4.00878
4 2 5.06811 4.13184 3.76803 -17.8602 2.12491 3.53189
1 1 5.01966 5.62485 5.22105 5.17042 0.248266 -0.947589
ITEM: TIMESTEP
52300
ITEM: NUMBER OF ATOMS
6
ITEM: BOX BOUNDS pp pp pp
0.0000000000000000e+00 1.0000000000000000e+01
0.0000000000000000e+00 1.0000000000000000e+01
0.0000000000000000e+00 1.0000000000000000e+01
ITEM: ATOMS id type x y z vx vy vz
2 1 4.59651 4.49568 5.13963 -1.6365 4.27871 5.67168
5 2 6.5129 5.34597 4.81041 12.4261 -11.4279 -20.0746
3 2 5.00517 3.48786 5.37943 -1.87791 -15.8899 -2.38956
6 2 5.03211 6.51489 4.66711 2.50529 11.5606 12.7129
4 2 3.48714 4.68452 5.17673 -22.7491 6.49383 14.2118
1 1 5.40056 5.5015 4.85769 2.45016 -3.50133 -6.04601
ITEM: TIMESTEP
52400
ITEM: NUMBER OF ATOMS
6
ITEM: BOX BOUNDS pp pp pp
0.0000000000000000e+00 1.0000000000000000e+01
0.0000000000000000e+00 1.0000000000000000e+01
0.0000000000000000e+00 1.0000000000000000e+01
ITEM: ATOMS id type x y z vx vy vz
2 1 4.56991 4.85344 5.4767 -1.0276 3.53596 3.93541
5 2 5.23646 4.837 3.50568 -13.0471 9.36677 7.09529
3 2 3.7179 4.17005 5.27152 3.60447 27.7784 19.8825
6 2 6.29935 5.78766 4.75004 -0.992209 -29.8074 -13.2582
4 2 4.71041 5.16497 6.51863 7.83707 -11.9773 -19.8208
1 1 5.4333 5.14991 4.5196 1.2456 -3.14661 -3.42341
ITEM: TIMESTEP
52500
ITEM: NUMBER OF ATOMS
6
ITEM: BOX BOUNDS pp pp pp
0.0000000000000000e+00 1.0000000000000000e+01
0.0000000000000000e+00 1.0000000000000000e+01
0.0000000000000000e+00 1.0000000000000000e+01
ITEM: ATOMS id type x y z vx vy vz
2 1 4.8805 5.25258 5.60617 7.39488 3.02804 0.660684
5 2 4.81218 5.26851 3.49806 8.48254 -3.78252 -16.0283
3 2 4.3769 6.16125 5.72102 7.73923 20.6668 -4.92418
6 2 5.6046 3.79438 4.29135 -11.0846 -26.6698 -7.60574
4 2 5.21358 4.74282 6.4849 -6.43645 -7.72576 14.039
1 1 5.11909 4.75016 4.39437 -7.28585 -1.55849 0.55777
ITEM: TIMESTEP
52600
ITEM: NUMBER OF ATOMS
6
ITEM: BOX BOUNDS pp pp pp
0.0000000000000000e+00 1.0000000000000000e+01
0.0000000000000000e+00 1.0000000000000000e+01
0.0000000000000000e+00 1.0000000000000000e+01
ITEM: ATOMS id type x y z vx vy vz
2 1 5.36759 5.35269 5.42932 4.65992 -0.296737 -3.20497
5 2 5.0085 4.46584 3.52885 -8.13861 -13.5499 6.67032
3 2 6.41206 5.72906 5.15457 13.8324 -14.3798 0.179004
6 2 3.5961 4.2743 4.77763 -3.63582 18.4236 -4.3154
4 2 4.9971 5.47943 6.47882 5.95042 20.0731 6.8761
1 1 4.63146 4.65159 4.57588 -5.33199 -0.590045 2.41528
ITEM: TIMESTEP
52700
ITEM: NUMBER OF ATOMS
6
ITEM: BOX BOUNDS pp pp pp
0.0000000000000000e+00 1.0000000000000000e+01
0.0000000000000000e+00 1.0000000000000000e+01
0.0000000000000000e+00 1.0000000000000000e+01
ITEM: ATOMS id type x y z vx vy vz
2 1 5.64785 5.16375 5.06942 4.1723 -3.47712 -5.33487
5 2 3.98378 3.86644 5.14341 -3.55873 14.8015 12.8632
3 2 6.37462 4.43445 5.38039 2.34088 15.6927 9.59205
6 2 3.65583 5.57814 4.61877 1.81639 -4.203 -5.34369
4 2 6.0221 6.16742 4.90478 3.84268 -33.9017 -13.1186
1 1 4.3493 4.83232 4.92676 -4.54501 4.1158 4.99978
ITEM: TIMESTEP
52800
ITEM: NUMBER OF ATOMS
6
ITEM: BOX BOUNDS pp pp pp
0.0000000000000000e+00 1.0000000000000000e+01
0.0000000000000000e+00 1.0000000000000000e+01
0.0000000000000000e+00 1.0000000000000000e+01
ITEM: ATOMS id type x y z vx vy vz
2 1 5.5593 4.72318 4.74865 -3.04253 -4.94452 -1.899
5 2 4.38101 5.6925 6.28233 -0.97892 28.7942 13.3011
3 2 6.44216 4.56741 5.34837 10.6662 9.0657 -0.602002
6 2 3.5506 5.42719 4.60742 -19.3543 6.85717 1.96146
4 2 5.61297 4.3339 3.73065 -5.88492 -31.159 -20.4534
1 1 4.44201 5.27502 5.25412 4.34764 3.80673 2.38514
ITEM: TIMESTEP
52900
ITEM: NUMBER OF ATOMS
6
ITEM: BOX BOUNDS pp pp pp
0.0000000000000000e+00 1.0000000000000000e+01
0.0000000000000000e+00 1.0000000000000000e+01
0.0000000000000000e+00 1.0000000000000000e+01
ITEM: ATOMS id type x y z vx vy vz
2 1 5.18176 4.40955 4.72833 -4.39162 -4.28173 -1.11333
5 2 5.25815 6.54755 4.92071 -14.7318 -14.5815 -8.72821
3 2 5.96292 4.33688 3.90834 -20.8986 -14.3566 -9.1964
6 2 4.06445 5.71597 6.07385 22.3988 11.0908 -7.71471
4 2 4.73391 3.47216 5.11052 9.51607 7.66617 10.8347
1 1 4.8168 5.58433 5.2707 4.70343 5.13613 2.35574
ITEM: TIMESTEP
53000
ITEM: NUMBER OF ATOMS
6
ITEM: BOX BOUNDS pp pp pp
0.0000000000000000e+00 1.0000000000000000e+01
0.0000000000000000e+00 1.0000000000000000e+01
0.0000000000000000e+00 1.0000000000000000e+01
ITEM: ATOMS id type x y z vx vy vz
2 1 4.70215 4.39231 4.97621 -5.05309 1.41617 3.91898
5 2 4.98143 6.43307 4.43668 -8.47227 8.93843 -6.58425
3 2 3.82974 4.21813 4.41143 -16.0688 -4.41905 23.2243
6 2 6.17773 5.74631 5.58715 17.1356 -7.32432 -10.4361
4 2 5.04227 3.54206 5.54602 -1.41003 -1.0288 -11.0502
1 1 5.29544 5.61273 5.02551 5.79288 -1.09444 -3.51228
ITEM: TIMESTEP
53100
ITEM: NUMBER OF ATOMS
6
ITEM: BOX BOUNDS pp pp pp
0.0000000000000000e+00 1.0000000000000000e+01
0.0000000000000000e+00 1.0000000000000000e+01
0.0000000000000000e+00 1.0000000000000000e+01
ITEM: ATOMS id type x y z vx vy vz
2 1 4.54085 4.69203 5.37696 -1.04579 2.94271 2.30709
3 2 4.053 5.18629 6.25471 21.8688 12.6824 16.9642
5 2 5.74076 6.38499 4.78651 17.1843 0.599784 -9.66215
4 2 4.19056 3.65342 5.21015 -19.7367 -8.74233 -1.05085
6 2 5.95399 4.79865 3.72436 -14.9692 -8.0146 -22.7902
1 1 5.46453 5.30598 4.62523 0.680962 -2.6511 -0.919136
ITEM: TIMESTEP
53200
ITEM: NUMBER OF ATOMS
6
ITEM: BOX BOUNDS pp pp pp
0.0000000000000000e+00 1.0000000000000000e+01
0.0000000000000000e+00 1.0000000000000000e+01
0.0000000000000000e+00 1.0000000000000000e+01
ITEM: ATOMS id type x y z vx vy vz
2 1 4.7095 5.10135 5.60334 2.58186 5.04824 3.08763
3 2 5.22782 4.89103 6.54616 -0.346228 -3.3048 -7.84303
5 2 6.28186 4.45925 4.29642 -28.3537 -7.40791 1.49279
4 2 3.7295 5.56953 5.67962 28.0991 13.5988 -2.50036
6 2 4.81367 5.06444 3.44999 8.18685 10.1412 21.1461
1 1 5.28626 4.89994 4.39914 -3.21848 -6.14149 -4.11947
ITEM: TIMESTEP
53300
ITEM: NUMBER OF ATOMS
6
ITEM: BOX BOUNDS pp pp pp
0.0000000000000000e+00 1.0000000000000000e+01
0.0000000000000000e+00 1.0000000000000000e+01
0.0000000000000000e+00 1.0000000000000000e+01
ITEM: ATOMS id type x y z vx vy vz
2 1 5.20012 5.36247 5.52952 2.34611 0.101825 -3.66187
3 2 5.02471 5.04341 6.53994 3.27421 2.92647 10.9264
5 2 4.25487 3.72162 4.55464 -36.5644 -9.51306 23.3394
4 2 5.74509 6.30386 5.46462 31.2917 -3.49365 -6.95281
6 2 4.95894 4.98775 3.45797 7.97987 2.84816 -13.6607
1 1 4.80146 4.63274 4.46919 -2.84807 0.505092 2.51616
ITEM: TIMESTEP
53400
ITEM: NUMBER OF ATOMS
6
ITEM: BOX BOUNDS pp pp pp
0.0000000000000000e+00 1.0000000000000000e+01
0.0000000000000000e+00 1.0000000000000000e+01
0.0000000000000000e+00 1.0000000000000000e+01
ITEM: ATOMS id type x y z vx vy vz
2 1 5.56332 5.26009 5.24373 3.45749 -1.65239 -4.41478
3 2 5.65459 6.29025 5.67068 -1.77389 -5.10553 -20.9249
5 2 3.44277 5.30068 4.85741 10.144 10.0968 -8.31337
4 2 6.5532 4.75657 5.14807 -5.56955 -16.9114 2.76293
6 2 4.37535 3.7086 4.28111 -7.99218 -4.8254 17.4469
1 1 4.4347 4.73517 4.76 -3.02181 3.05768 5.17244
ITEM: TIMESTEP
53500
ITEM: NUMBER OF ATOMS
6
ITEM: BOX BOUNDS pp pp pp
0.0000000000000000e+00 1.0000000000000000e+01
0.0000000000000000e+00 1.0000000000000000e+01
0.0000000000000000e+00 1.0000000000000000e+01
ITEM: ATOMS id type x y z vx vy vz
2 1 5.64751 4.90525 4.83713 -1.48501 -2.55989 -3.30632
3 2 6.04564 5.15067 3.87161 -11.3822 -24.6691 -13.6324
5 2 3.6476 5.54609 4.50703 12.2021 -7.63454 1.53314
4 2 6.30461 4.42751 5.51793 -14.7879 -2.51419 0.766158
6 2 3.94987 4.83117 6.10379 16.5843 30.5061 -8.51468
1 1 4.35708 5.09845 5.16299 1.26546 2.92174 4.97196
ITEM: TIMESTEP
53600
ITEM: NUMBER OF ATOMS
6
ITEM: BOX BOUNDS pp pp pp
0.0000000000000000e+00 1.0000000000000000e+01
0.0000000000000000e+00 1.0000000000000000e+01
0.0000000000000000e+00 1.0000000000000000e+01
ITEM: ATOMS id type x y z vx vy vz
2 1 5.34872 4.501 4.72977 -5.10066 0.605951 0.335006
3 2 4.83284 3.57971 4.39972 -16.1165 -16.42 19.3738
5 2 3.58693 5.44663 5.49972 -11.8973 -7.44272 18.4569
4 2 6.44955 4.55477 4.50385 3.29986 -6.86986 -11.8226
6 2 5.1779 6.4238 5.56791 28.4025 20.944 -15.2577
1 1 4.64752 5.49855 5.27279 4.79111 0.215513 -1.23718
ITEM: TIMESTEP
53700
ITEM: NUMBER OF ATOMS
6
ITEM: BOX BOUNDS pp pp pp
0.0000000000000000e+00 1.0000000000000000e+01
0.0000000000000000e+00 1.0000000000000000e+01
0.0000000000000000e+00 1.0000000000000000e+01
ITEM: ATOMS id type x y z vx vy vz
2 1 4.88253 4.36502 4.84674 -4.77103 -0.258399 1.98277
3 2 4.92133 3.54536 5.58107 5.60464 26.7667 -6.49462
5 2 5.44861 5.90273 6.20153 22.9702 -1.20729 -24.0078
4 2 4.54496 4.07331 3.85401 -19.5949 10.6741 19.4482
6 2 5.03312 6.44642 4.39231 -0.284342 -18.3206 -0.941716
1 1 5.12203 5.63765 5.15099 4.04129 -1.24485 -0.976073
ITEM: TIMESTEP
53800
ITEM: NUMBER OF ATOMS
6
ITEM: BOX BOUNDS pp pp pp
0.0000000000000000e+00 1.0000000000000000e+01
0.0000000000000000e+00 1.0000000000000000e+01
0.0000000000000000e+00 1.0000000000000000e+01
ITEM: ATOMS id type x y z vx vy vz
2 1 4.55368 4.56013 5.24165 0.263532 4.04908 1.77872
3 2 4.78892 3.51874 5.29541 0.785884 -18.8201 -0.152463
5 2 6.40816 5.12827 4.44799 -8.05989 -18.2786 -20.8252
4 2 3.6065 4.91749 5.56977 8.95189 28.6556 23.012
6 2 5.24663 6.47632 4.73922 12.7127 -4.81416 0.881991
1 1 5.4423 5.43641 4.7541 -1.47119 -2.93652 -2.02346
ITEM: TIMESTEP
53900
ITEM: NUMBER OF ATOMS
6
ITEM: BOX BOUNDS pp pp pp
0.0000000000000000e+00 1.0000000000000000e+01
0.0000000000000000e+00 1.0000000000000000e+01
0.0000000000000000e+00 1.0000000000000000e+01
ITEM: ATOMS id type x y z vx vy vz
2 1 4.61483 4.93248 5.53618 3.4828 4.27026 0.0173338
3 2 3.53921 4.65378 5.38052 0.075404 23.3876 5.61775
5 2 5.00097 4.84215 3.44785 -19.5827 -3.55519 -5.09852
4 2 4.99226 5.15559 6.59362 10.8816 -5.1792 4.81122
6 2 6.47694 5.31675 4.57702 11.6738 -23.1025 6.05114
1 1 5.38458 5.07015 4.46405 -3.73859 -3.5612 -0.97248
ITEM: TIMESTEP
54000
ITEM: NUMBER OF ATOMS
6
ITEM: BOX BOUNDS pp pp pp
0.0000000000000000e+00 1.0000000000000000e+01
0.0000000000000000e+00 1.0000000000000000e+01
0.0000000000000000e+00 1.0000000000000000e+01
ITEM: ATOMS id type x y z vx vy vz
2 1 5.00227 5.3151 5.58699 4.34302 2.07679 0.716966
3 2 4.83902 6.37756 5.68449 29.5485 -12.3679 -12.5998
5 2 4.85939 5.28724 3.51153 -5.00613 -15.5866 13.6752
4 2 5.14858 4.76533 6.47793 -5.92931 8.90549 -15.4061
6 2 5.18883 3.61824 4.3532 -32.1416 6.65366 10.2581
1 1 4.99492 4.68081 4.41088 -3.2077 -1.03657 -0.375195
ITEM: TIMESTEP
54100
ITEM: NUMBER OF ATOMS
6
ITEM: BOX BOUNDS pp pp pp
0.0000000000000000e+00 1.0000000000000000e+01
0.0000000000000000e+00 1.0000000000000000e+01
0.0000000000000000e+00 1.0000000000000000e+01
ITEM: ATOMS id type x y z vx vy vz
1 1 4.54414 4.69119 4.62591 -3.74627 3.31968 5.30711
6 2 3.5176 4.62242 4.94453 -15.3 10.9739 -3.20659
5 2 4.8365 4.12631 3.74972 -0.557709 -23.0859 -1.97275
4 2 5.13977 5.86812 6.26337 -3.86648 23.8141 0.139581
3 2 6.49045 5.3168 5.04366 28.9871 -18.4464 -14.121
2 1 5.45738 5.31434 5.37413 2.96892 -2.75368 -3.69913
ITEM: TIMESTEP
54200
ITEM: NUMBER OF ATOMS
6
ITEM: BOX BOUNDS pp pp pp
0.0000000000000000e+00 1.0000000000000000e+01
0.0000000000000000e+00 1.0000000000000000e+01
0.0000000000000000e+00 1.0000000000000000e+01
ITEM: ATOMS id type x y z vx vy vz
1 1 4.3437 4.92453 5.02893 -2.76528 1.68112 3.2591
6 2 3.67335 5.67724 4.52187 7.36816 6.28826 1.09803
5 2 3.8669 4.07976 5.56418 0.817478 23.5711 21.714
4 2 6.12495 5.95476 4.43961 7.73655 -25.6214 -15.6272
3 2 6.30553 4.33771 5.52875 -6.52695 9.94585 -9.18142
2 1 5.65896 5.07129 4.96665 1.97683 -2.87143 -3.09155
ITEM: TIMESTEP
54300
ITEM: NUMBER OF ATOMS
6
ITEM: BOX BOUNDS pp pp pp
0.0000000000000000e+00 1.0000000000000000e+01
0.0000000000000000e+00 1.0000000000000000e+01
0.0000000000000000e+00 1.0000000000000000e+01
ITEM: ATOMS id type x y z vx vy vz
1 1 4.51632 5.38301 5.26255 2.22896 5.02758 1.33358
6 2 3.54413 5.3448 4.85936 -2.9148 2.47224 16.6764
5 2 4.73717 5.95917 6.14857 10.7362 15.9895 -14.3718
4 2 5.27609 4.0458 3.88825 -7.00271 -10.7919 10.4487
3 2 6.47501 4.62631 5.08476 0.517289 2.17562 -19.0161
2 1 5.48116 4.61896 4.7392 -2.34107 -5.85382 -0.808008
ITEM: TIMESTEP
54400
ITEM: NUMBER OF ATOMS
6
ITEM: BOX BOUNDS pp pp pp
0.0000000000000000e+00 1.0000000000000000e+01
0.0000000000000000e+00 1.0000000000000000e+01
0.0000000000000000e+00 1.0000000000000000e+01
ITEM: ATOMS id type x y z vx vy vz
1 1 4.93581 5.61567 5.23134 3.48619 0.604763 -0.195894
6 2 4.50394 5.79477 6.2456 24.5529 17.5021 10.1603
5 2 5.24417 6.50184 4.65285 -0.99599 15.3289 -14.5343
4 2 4.78316 3.49269 5.38204 -11.1011 -10.7955 19.1792
3 2 5.50498 4.22631 3.74972 -17.8896 -12.1587 -27.8067
2 1 5.06135 4.38298 4.76628 -3.03019 -1.43363 1.28698
ITEM: TIMESTEP
54500
ITEM: NUMBER OF ATOMS
6
ITEM: BOX BOUNDS pp pp pp
0.0000000000000000e+00 1.0000000000000000e+01
0.0000000000000000e+00 1.0000000000000000e+01
0.0000000000000000e+00 1.0000000000000000e+01
ITEM: ATOMS id type x y z vx vy vz
1 1 5.37307 5.54368 4.91891 2.77143 1.9684 -6.14614
6 2 6.42359 5.56042 5.22496 0.785008 -16.2269 -22.1236
5 2 4.9746 6.4724 4.51707 16.7356 -8.94074 15.1093
4 2 5.07724 3.51967 5.4768 -23.5896 8.17548 -10.4637
3 2 3.57756 4.43536 4.73195 14.5312 3.2319 26.6306
2 1 4.62268 4.45731 5.08537 -3.48158 -0.813637 5.37805
ITEM: TIMESTEP
54600
ITEM: NUMBER OF ATOMS
6
ITEM: BOX BOUNDS pp pp pp
0.0000000000000000e+00 1.0000000000000000e+01
0.0000000000000000e+00 1.0000000000000000e+01
0.0000000000000000e+00 1.0000000000000000e+01
ITEM: ATOMS id type x y z vx vy vz
1 1 5.44552 5.211 4.54459 -1.66021 -3.93901 -3.55448
6 2 5.56595 4.75844 3.58643 -10.8838 -1.2383 -19.5259
5 2 6.05161 6.08452 4.79051 27.5872 -3.31033 -0.525807
4 2 3.9468 3.95565 5.25573 -28.4344 8.68919 5.57449
3 2 4.389 5.24226 6.3948 3.84034 2.92807 12.5528
2 1 4.5586 4.78553 5.45325 2.32239 3.34581 3.71598
ITEM: TIMESTEP
54700
ITEM: NUMBER OF ATOMS
6
ITEM: BOX BOUNDS pp pp pp
0.0000000000000000e+00 1.0000000000000000e+01
0.0000000000000000e+00 1.0000000000000000e+01
0.0000000000000000e+00 1.0000000000000000e+01
ITEM: ATOMS id type x y z vx vy vz
1 1 5.18994 4.79139 4.39672 -5.49496 -3.13132 -1.5037
6 2 4.74337 5.23346 3.44949 13.7259 -5.34832 -2.64083
5 2 6.00365 4.04603 4.23294 -19.9941 -12.4938 -9.55357
4 2 3.96502 5.9408 5.79088 14.386 20.6106 -1.37888
3 2 5.27219 4.76236 6.53028 4.26733 -2.15492 16.2908
2 1 4.81158 5.21003 5.60313 4.4556 3.07982 1.27564
ITEM: TIMESTEP
54800
ITEM: NUMBER OF ATOMS
6
ITEM: BOX BOUNDS pp pp pp
0.0000000000000000e+00 1.0000000000000000e+01
0.0000000000000000e+00 1.0000000000000000e+01
0.0000000000000000e+00 1.0000000000000000e+01
ITEM: ATOMS id type x y z vx vy vz
1 1 4.68818 4.64059 4.52373 -7.55966 0.180072 2.05473
6 2 4.9624 4.70053 3.50171 2.73225 -20.8597 8.30701
5 2 3.87634 3.98042 4.71018 -2.9694 16.1955 -1.33518
4 2 6.09989 6.07161 5.24154 6.82396 -15.6108 8.84902
3 2 5.02535 5.27143 6.51351 9.16407 21.4267 -25.5956
2 1 5.31504 5.35736 5.47919 6.23785 -0.276729 -1.23443
ITEM: TIMESTEP
54900
ITEM: NUMBER OF ATOMS
6
ITEM: BOX BOUNDS pp pp pp
0.0000000000000000e+00 1.0000000000000000e+01