6
energy=-373.261250 Lattice="12.718 0.0 0.0 0.0 12.718 0.0 0.0 0.0 12.718" Properties=species:S:1:pos:R:3:Z:I:1:force:R:3
C 6.093867 6.600709 7.596213 6 -0.20162451 0.82890780 2.16103792
H 6.183341 7.742091 7.728372 1 -0.06849784 -1.66739553 -0.91113533
H 5.779845 6.145291 8.561812 1 -0.02530482 0.12941503 -0.50434333
C 6.426950 5.813824 6.575443 6 0.49013283 1.62982963 -0.34441443
H 6.403467 4.729956 6.641827 1 -0.06364616 -0.02624327 -0.23853272
H 6.823192 6.375944 5.710857 1 -0.13002901 -0.88885825 -0.15728323
6
energy=-373.212335 Lattice="12.718 0.0 0.0 0.0 12.718 0.0 0.0 0.0 12.718" Properties=species:S:1:pos:R:3:Z:I:1:force:R:3
C 6.129172 6.819224 9.151916 6 -0.29522045 3.35648553 1.30361811
H 6.193552 5.797145 9.150297 1 0.07814874 -2.58044325 -0.37529083
H 6.425971 7.470568 8.368758 1 0.34357059 -0.08275667 -1.49334304
C 5.799333 7.508260 10.252389 6 0.17368020 -2.10964822 1.27708174
H 5.870160 8.572256 10.345332 1 -0.17171639 0.68665576 -0.10195203
H 5.609921 6.920278 11.190539 1 -0.12992256 0.72830252 -0.60544123
6
energy=-373.183453 Lattice="12.718 0.0 0.0 0.0 12.718 0.0 0.0 0.0 12.718" Properties=species:S:1:pos:R:3:Z:I:1:force:R:3
C 6.287093 5.425819 6.021278 6 1.28385917 -2.95124853 -1.32328501
H 6.279454 4.779980 6.921403 1 -0.26551750 0.32045224 -0.40091600
H 6.609587 4.865576 5.019574 1 -0.95839739 1.07606041 2.05434272
C 6.207800 6.736535 6.035322 6 0.35342306 0.48855932 0.21906380
H 6.415135 7.173677 5.069766 1 -0.21161840 0.97873174 -0.03963153
H 6.115135 7.301216 6.974569 1 -0.20609155 0.08432453 -0.51442360
6
energy=-373.339253 Lattice="12.718 0.0 0.0 0.0 12.718 0.0 0.0 0.0 12.718" Properties=species:S:1:pos:R:3:Z:I:1:force:R:3
C 6.050578 6.628168 7.975552 6 -0.08014546 0.12072726 1.97555943
H 6.169819 7.750240 8.054509 1 -0.33987746 -1.28674549 -0.01800545
H 5.757477 5.992966 8.869589 1 0.08054038 1.27924301 -0.63937005
C 6.405201 5.925321 6.921075 6 0.47833095 -0.54795647 -1.57146966
H 6.363917 4.820581 6.881571 1 -0.07813485 0.49430265 0.14665223
H 6.771451 6.401656 6.002017 1 -0.06255293 -0.06152089 0.10860193
6
energy=-373.292303 Lattice="12.718 0.0 0.0 0.0 12.718 0.0 0.0 0.0 12.718" Properties=species:S:1:pos:R:3:Z:I:1:force:R:3
C 6.423481 6.344473 5.499914 6 -0.37747010 -1.10934645 2.75520486
H 6.815769 5.467004 4.943688 1 -0.18454518 0.82162848 -0.09607962
H 6.288245 7.332060 5.042325 1 0.07118207 -0.33694588 -0.00518335
C 6.132006 6.094187 6.834447 6 0.52619566 -0.65539626 -1.94296759
H 5.719181 6.763657 7.568334 1 -0.16356393 0.88796762 -0.04417878
H 6.260152 5.089181 7.296593 1 0.13003312 0.40034676 -0.65874333
6
energy=-373.215433 Lattice="12.718 0.0 0.0 0.0 12.718 0.0 0.0 0.0 12.718" Properties=species:S:1:pos:R:3:Z:I:1:force:R:3
C 6.379665 6.615108 6.141308 6 -0.37709009 1.54413624 -0.83605547
H 6.477068 6.559426 4.973908 1 0.02105529 0.20350399 2.25649636
H 6.272448 7.655336 6.656112 1 0.31131968 -1.64341278 -1.19333468
C 6.240377 5.531424 6.902432 6 -0.34110953 -0.28337125 0.10254852
H 5.998187 5.531615 7.959626 1 0.18583021 0.57373231 0.35488140
H 6.237462 4.513476 6.550898 1 0.19906523 -0.40124202 -0.68992312
6
energy=-373.322550 Lattice="12.718 0.0 0.0 0.0 12.718 0.0 0.0 0.0 12.718" Properties=species:S:1:pos:R:3:Z:I:1:force:R:3
C 6.256529 6.729892 5.815166 6 0.01096319 2.35593231 -0.62442370
H 6.467153 7.282070 4.820158 1 -0.33593338 -1.15556926 1.44115526
H 6.032535 7.420175 6.658804 1 0.11549455 -0.34079328 -0.47209499
C 6.270353 5.421573 6.003569 6 0.43267738 -0.66912545 -0.08498016
H 6.113190 5.010801 7.032037 1 0.05611540 -0.00497509 -1.01554328
H 6.543552 4.798187 5.128121 1 -0.27828869 -0.18791435 0.76497573
6
energy=-373.414178 Lattice="12.718 0.0 0.0 0.0 12.718 0.0 0.0 0.0 12.718" Properties=species:S:1:pos:R:3:Z:I:1:force:R:3
C 6.453783 5.775045 6.001792 6 -0.31391495 -0.02208425 -0.28055384
H 6.597132 4.816202 6.463576 1 0.24716701 -0.49615179 0.19019132
H 6.402213 5.846243 4.934902 1 0.22603561 -0.32799689 -0.80790650
C 6.184379 6.868706 6.684771 6 -0.42570094 1.08074496 0.09188255
H 5.941773 7.818537 6.174444 1 0.20264370 -0.34380456 0.24412231
H 6.119389 6.866265 7.758563 1 0.06344973 0.10377545 0.57858347
6
energy=-373.378483 Lattice="12.718 0.0 0.0 0.0 12.718 0.0 0.0 0.0 12.718" Properties=species:S:1:pos:R:3:Z:I:1:force:R:3
C 6.442253 6.349055 5.628602 6 0.21417613 -0.12674776 -1.93515092
H 6.804470 5.538473 4.987878 1 0.15758097 -0.31535991 0.39482968
H 6.303478 7.224727 4.964802 1 -0.15526337 0.12551775 0.96981206
C 6.161533 6.185300 6.908935 6 -0.26629294 0.04440761 0.45038201
H 5.730373 6.996481 7.492610 1 0.04110426 0.03969375 0.19352553
H 6.306758 5.219505 7.409488 1 0.00995378 0.23705022 -0.07975002
6
energy=-373.302387 Lattice="12.718 0.0 0.0 0.0 12.718 0.0 0.0 0.0 12.718" Properties=species:S:1:pos:R:3:Z:I:1:force:R:3
C 6.239431 6.766501 5.835028 6 0.18352959 -1.09064629 -0.40841797
H 6.397760 7.406324 5.027479 1 0.31938523 0.81374033 -1.92275305
H 6.056605 7.347978 6.680264 1 -0.50939606 0.46413125 2.00236115
C 6.323990 5.440686 5.761779 6 0.08744225 0.60527463 0.97917037
H 6.215662 4.867707 6.679410 1 -0.10010340 -0.35728589 -0.05941207
H 6.605151 4.944832 4.856481 1 0.02134377 -0.43486487 -0.58382390
6
energy=-373.236496 Lattice="12.718 0.0 0.0 0.0 12.718 0.0 0.0 0.0 12.718" Properties=species:S:1:pos:R:3:Z:I:1:force:R:3
C 6.307381 6.881711 7.695527 6 -0.64001848 -2.74732905 0.74772927
H 6.305399 6.607796 6.680379 1 0.01101461 -0.79879090 -1.52518977
H 6.500340 7.898097 7.772029 1 0.35113581 2.00560537 1.03908483
C 6.052115 5.976999 8.667836 6 0.05210241 1.39163269 -0.54710389
H 5.995089 6.326157 9.673476 1 0.11643095 0.35440060 1.01786550
H 5.799525 4.926247 8.600619 1 0.10822964 -0.21105738 -0.73093378
6
energy=-373.335229 Lattice="12.718 0.0 0.0 0.0 12.718 0.0 0.0 0.0 12.718" Properties=species:S:1:pos:R:3:Z:I:1:force:R:3
C 6.228476 5.527372 6.820442 6 -0.70505253 -1.92336652 0.71906402
H 5.957784 5.539602 7.926801 1 0.50540005 0.44463559 -1.33464466
H 6.225145 4.460008 6.414248 1 0.24623730 1.33947629 0.37575208
C 6.374672 6.570820 6.009726 6 -0.40316778 0.71727145 -0.28164038
H 6.506661 6.483317 4.922615 1 0.15293035 -0.30188938 0.26388073
H 6.239029 7.616499 6.322022 1 0.20266272 -0.28074513 0.25930417
6
energy=-373.283214 Lattice="12.718 0.0 0.0 0.0 12.718 0.0 0.0 0.0 12.718" Properties=species:S:1:pos:R:3:Z:I:1:force:R:3
C 6.436511 5.932194 5.355674 6 0.09909759 -1.54880691 -1.36595815
H 6.661224 4.797804 5.156399 1 -0.33282440 2.03451179 0.73100937
H 6.453417 6.498567 4.405365 1 0.02901543 0.10483835 0.55939274
C 6.079644 6.411030 6.547965 6 0.01151238 -0.87080087 1.02862558
H 5.790230 7.441492 6.834776 1 0.25049710 -0.45518637 -0.54107002
H 6.067613 5.664915 7.384232 1 -0.05452182 0.73967914 -0.42651444
6
energy=-373.335907 Lattice="12.718 0.0 0.0 0.0 12.718 0.0 0.0 0.0 12.718" Properties=species:S:1:pos:R:3:Z:I:1:force:R:3
C 6.137616 6.800245 7.332762 6 0.79052223 1.80416238 -1.02766038
H 6.343478 7.664736 6.655016 1 -0.44584092 -0.20925041 0.77961611
H 5.938365 6.982598 8.380693 1 -0.30100081 0.00314035 0.15548706
C 6.383765 5.622220 6.808976 6 0.31812179 -2.75557356 -0.10903028
H 6.289191 4.696273 7.453220 1 0.09761663 0.79678955 -0.77244993
H 6.728801 5.437902 5.753478 1 -0.46078470 0.34865726 0.96970511
6
energy=-373.195814 Lattice="12.718 0.0 0.0 0.0 12.718 0.0 0.0 0.0 12.718" Properties=species:S:1:pos:R:3:Z:I:1:force:R:3
C 6.121481 6.087055 6.501006 6 -0.82430809 0.05742563 1.25557753
H 5.757945 6.973600 7.061056 1 0.37578345 -0.08940966 -0.40467342
H 6.008958 5.182413 7.222132 1 0.63659840 0.97612053 -1.82105299
C 6.454844 6.184943 5.195760 6 -0.73986786 -0.96023830 0.48285609
H 6.643736 5.222497 4.665181 1 0.20165948 0.88211064 -0.02927460
H 6.336715 7.141422 4.623935 1 0.34772961 -0.85971683 0.51441795
6
energy=-373.076809 Lattice="12.718 0.0 0.0 0.0 12.718 0.0 0.0 0.0 12.718" Properties=species:S:1:pos:R:3:Z:I:1:force:R:3
C 6.058458 7.291912 8.707719 6 0.24291389 -3.56767250 1.88285927
H 6.144465 7.845724 7.892629 1 0.19619382 3.38385957 -3.25425480
H 6.052417 7.578896 9.720774 1 -0.31870955 1.16160467 1.02551351
C 6.173047 5.982775 8.512976 6 -0.01638925 -1.18149320 0.71327646
H 6.134165 5.332113 9.401325 1 0.06808183 -0.07953148 -0.34994230
H 6.328725 5.468186 7.559374 1 -0.17252475 0.28664735 -0.01329004
6
energy=-373.369836 Lattice="12.718 0.0 0.0 0.0 12.718 0.0 0.0 0.0 12.718" Properties=species:S:1:pos:R:3:Z:I:1:force:R:3
C 6.044253 6.808970 8.365345 6 0.82655626 0.58228843 -1.95028856
H 6.122439 7.868480 8.146414 1 0.04948811 0.30861745 -0.26616850
H 5.757647 6.647928 9.359597 1 -0.52444783 -0.87034013 1.45921573
C 6.369037 5.896362 7.436186 6 -0.50101940 0.65440484 0.97830700
H 6.278309 4.860503 7.655656 1 -0.00151027 -1.09197349 0.23962750
H 6.682681 6.122356 6.433982 1 0.14990262 0.41318120 -0.45123098
6
energy=-373.126144 Lattice="12.718 0.0 0.0 0.0 12.718 0.0 0.0 0.0 12.718" Properties=species:S:1:pos:R:3:Z:I:1:force:R:3
C 6.060270 7.493232 9.028640 6 -0.96839281 2.84615770 -0.63724426
H 5.935136 8.132695 8.057762 1 0.46827175 -0.58581290 2.11905383
H 5.940009 7.839383 10.105312 1 0.22300942 0.49145181 -1.60920371
C 6.103177 6.200687 8.915328 6 0.13251321 -2.60328855 -0.12443480
H 6.060664 5.655063 9.852400 1 0.17283585 -0.57737351 0.04722246
H 6.153636 5.594430 7.996394 1 -0.02797568 0.41488584 0.19806610
6
energy=-373.374229 Lattice="12.718 0.0 0.0 0.0 12.718 0.0 0.0 0.0 12.718" Properties=species:S:1:pos:R:3:Z:I:1:force:R:3
C 6.084854 6.449356 6.611732 6 -0.26243474 -0.87387951 -0.22047894
H 5.756821 7.470397 6.698143 1 0.06477950 0.68430628 -0.11473916
H 5.949758 5.895860 7.573048 1 0.41786884 0.03901960 -0.85584115
C 6.430937 5.908568 5.417305 6 -0.53376654 -0.00370445 1.36362822
H 6.627823 4.819625 5.389149 1 0.12128622 0.57687986 -0.39667882
H 6.412634 6.528827 4.507197 1 0.19711119 -0.41955960 0.22919601
6
energy=-373.256845 Lattice="12.718 0.0 0.0 0.0 12.718 0.0 0.0 0.0 12.718" Properties=species:S:1:pos:R:3:Z:I:1:force:R:3
C 6.396873 5.844871 7.203706 6 -0.70523302 -0.41991544 -0.30135613
H 6.269171 4.741624 7.434163 1 0.35991305 1.23051800 -0.14483240
H 6.630150 6.071383 6.119656 1 -0.10388704 -0.03262064 1.26173378
C 6.064458 6.776276 8.119492 6 -0.19199007 -0.17396611 1.08919824
H 6.036935 7.862559 8.035684 1 0.33322035 0.08868512 -0.92402840
H 5.758860 6.587404 9.186329 1 0.30735812 -0.68768728 -0.97397263
6
energy=-373.261100 Lattice="12.718 0.0 0.0 0.0 12.718 0.0 0.0 0.0 12.718" Properties=species:S:1:pos:R:3:Z:I:1:force:R:3
C 6.435213 6.068629 5.544464 6 0.61636637 0.24003065 -1.77228376
H 6.857400 5.101568 5.124476 1 -0.60650259 0.74026021 1.08896118
H 6.418325 6.818073 4.656984 1 -0.31211364 -0.77589418 1.75891710
C 6.106734 6.351815 6.818282 6 0.49181073 -0.10442132 -0.16669708
H 5.797111 7.346782 7.146977 1 -0.12963409 0.06996645 -0.34867423
H 6.227621 5.669705 7.676298 1 -0.05973962 -0.16590929 -0.56816690
6
energy=-373.331384 Lattice="12.718 0.0 0.0 0.0 12.718 0.0 0.0 0.0 12.718" Properties=species:S:1:pos:R:3:Z:I:1:force:R:3
C 6.218730 5.901303 8.252236 6 0.44882546 -2.22396417 -1.07292777
H 6.207299 4.975270 8.910370 1 -0.07400463 1.38362370 -0.27234893
H 6.396814 5.567869 7.176500 1 -0.22371339 0.79428581 1.12447946
C 6.080257 7.165002 8.629723 6 -0.60442565 1.09187939 0.19623548
H 6.051606 8.021052 7.900477 1 0.18550471 -0.85562466 0.59114332
H 5.857487 7.441075 9.683774 1 0.26803461 -0.18658560 -0.56577423
6
energy=-373.299048 Lattice="12.718 0.0 0.0 0.0 12.718 0.0 0.0 0.0 12.718" Properties=species:S:1:pos:R:3:Z:I:1:force:R:3
C 6.280835 5.547459 6.188291 6 0.95589724 -2.40710758 -0.19655943
H 6.229740 5.052523 7.194957 1 -0.21370716 0.28756472 -0.93632548
H 6.588962 4.876851 5.313835 1 -0.63103196 0.83800077 1.11771951
C 6.211568 6.856184 6.084849 6 0.54192311 1.83245430 -0.43012838
H 6.453719 7.394574 5.109511 1 -0.56670599 -0.53779752 1.28417336
H 6.072308 7.439480 7.023249 1 -0.08866558 -0.01014815 -0.83325708
6
energy=-373.315402 Lattice="12.718 0.0 0.0 0.0 12.718 0.0 0.0 0.0 12.718" Properties=species:S:1:pos:R:3:Z:I:1:force:R:3
C 6.101319 6.406968 7.442148 6 0.77788268 -1.57185893 -1.59941140
H 6.110305 7.423985 7.832688 1 0.02014821 0.14170954 -0.54387201
H 5.866269 5.639518 8.166302 1 -0.30987626 -0.11721256 0.47482499
C 6.475807 5.923520 6.212568 6 -0.23998180 1.27442064 1.52479228
H 6.531461 4.876967 5.937254 1 -0.28948431 -0.39383004 0.43966307
H 6.824369 6.543822 5.404726 1 0.04019460 0.67357912 -0.29679448
6
energy=-373.364840 Lattice="12.718 0.0 0.0 0.0 12.718 0.0 0.0 0.0 12.718" Properties=species:S:1:pos:R:3:Z:I:1:force:R:3
C 6.443406 5.972363 5.240809 6 0.58783945 -1.09992952 -1.70441173
H 6.680604 4.959703 4.829156 1 -0.21090980 0.44829324 0.70796610
H 6.532489 6.694359 4.417349 1 -0.11839373 0.37155244 0.57177056
C 6.108391 6.206395 6.497185 6 -0.91959993 1.07880995 0.86130115
H 5.817685 7.252929 6.825183 1 0.43347133 -1.18627905 -0.21341560
H 5.962854 5.388979 7.224896 1 0.22727694 0.38086910 -0.21217993
6
energy=-373.344242 Lattice="12.718 0.0 0.0 0.0 12.718 0.0 0.0 0.0 12.718" Properties=species:S:1:pos:R:3:Z:I:1:force:R:3
C 6.068613 6.140220 8.138485 6 -0.07114299 -0.10296504 -1.03159983
H 5.918956 6.764476 8.998687 1 0.34486797 1.05389285 0.10454421
H 5.774316 5.147976 8.392393 1 -0.07961581 -1.15403328 -0.00593000
C 6.412824 6.431910 6.868073 6 -0.48713801 0.75461315 0.97470333
H 6.370199 5.652694 6.112207 1 0.21678220 -0.03907720 -0.14026715
H 6.612647 7.470089 6.542292 1 0.07879254 -0.51082817 0.09880602
6
energy=-373.356248 Lattice="12.718 0.0 0.0 0.0 12.718 0.0 0.0 0.0 12.718" Properties=species:S:1:pos:R:3:Z:I:1:force:R:3
C 6.266234 5.532933 6.186125 6 -0.05653243 1.11233150 -0.00531499
H 6.108218 5.076372 7.144207 1 -0.16244499 0.05527362 0.82183623
H 6.455850 4.774568 5.441289 1 0.14840264 0.09551706 -0.69696692
C 6.224902 6.872533 5.972212 6 -0.28587859 -2.36686259 1.75329101
H 6.379432 7.207597 4.999000 1 0.26949088 1.03287613 -1.67538550
H 6.000807 7.559036 6.791696 1 0.08754047 0.05997925 -0.19817563
6
energy=-373.312281 Lattice="12.718 0.0 0.0 0.0 12.718 0.0 0.0 0.0 12.718" Properties=species:S:1:pos:R:3:Z:I:1:force:R:3
C 6.085660 6.192333 6.753728 6 0.42984196 -1.15155268 -1.69213882
H 5.703507 6.992975 7.317025 1 -0.38362275 1.65696713 0.27702268
H 6.077830 5.313866 7.355560 1 0.32761997 -1.12965406 0.28939792
C 6.414259 6.202446 5.442713 6 -0.46763206 0.09206150 1.52791257
H 6.748112 5.378685 4.829561 1 0.12089747 -0.56409375 0.23692681
H 6.311354 7.112746 4.909885 1 -0.02423986 1.09030484 -0.63922710
6
energy=-373.321459 Lattice="12.718 0.0 0.0 0.0 12.718 0.0 0.0 0.0 12.718" Properties=species:S:1:pos:R:3:Z:I:1:force:R:3
C 6.375924 6.654253 6.512336 6 0.46340157 -0.28515457 0.16469676
H 6.538830 6.183025 5.505804 1 -0.20382486 1.05896204 0.55868878
H 6.501424 7.771276 6.706353 1 -0.22101938 -1.50309524 -0.44991818
C 6.174396 5.752505 7.493319 6 -0.25845313 0.06332889 0.66122856
H 6.051381 6.000288 8.580642 1 0.09758063 0.02715395 -0.93278250
H 6.083417 4.665895 7.275825 1 0.12256663 0.64274128 -0.00148918
6
energy=-373.356790 Lattice="12.718 0.0 0.0 0.0 12.718 0.0 0.0 0.0 12.718" Properties=species:S:1:pos:R:3:Z:I:1:force:R:3
C 6.359554 6.725694 5.770646 6 0.24177077 0.20639391 -0.25208399
H 6.725463 6.491895 4.757480 1 -0.19968230 -0.20082181 0.33586807
H 6.199012 7.795467 5.919607 1 -0.20233774 -0.05792082 0.25696292
C 6.218649 5.796666 6.715589 6 0.37377079 -0.67820556 1.11865076
H 5.971419 5.905720 7.800584 1 -0.13105179 0.71324561 -0.89914216
H 6.497744 4.749157 6.568616 1 -0.08335265 0.00508153 -0.56660315
6
energy=-373.362541 Lattice="12.718 0.0 0.0 0.0 12.718 0.0 0.0 0.0 12.718" Properties=species:S:1:pos:R:3:Z:I:1:force:R:3
C 6.083147 6.698434 7.927984 6 -0.82596028 1.03812067 0.35552263
H 6.079714 7.810661 7.718171 1 0.25503048 -1.12279127 0.23884743
H 5.647545 6.442942 8.937989 1 0.62111469 -0.07377632 -1.05570805
C 6.398371 5.835319 6.955276 6 -0.09610842 -0.99479806 -0.07083446
H 6.307583 4.712683 7.048391 1 0.13845709 1.15837433 0.13835579
H 6.739934 6.174581 5.962701 1 -0.09193192 -0.00008742 0.39308750
6
energy=-373.338290 Lattice="12.718 0.0 0.0 0.0 12.718 0.0 0.0 0.0 12.718" Properties=species:S:1:pos:R:3:Z:I:1:force:R:3
C 6.039508 7.742582 9.340109 6 0.34108793 2.09276223 1.45288413
H 6.021347 8.160715 8.324924 1 -0.07363542 -0.66209502 -0.00293003
H 6.167971 8.597467 10.104397 1 -0.18222552 -1.32715555 -0.88926500
C 5.949991 6.471673 9.734834 6 -0.20900872 -0.08444692 -1.15123489
H 5.974463 6.198938 10.795270 1 0.00200443 -0.14822472 -0.29805638
H 5.812424 5.714597 8.927218 1 0.11968442 0.11550689 0.88958639
6
energy=-373.282582 Lattice="12.718 0.0 0.0 0.0 12.718 0.0 0.0 0.0 12.718" Properties=species:S:1:pos:R:3:Z:I:1:force:R:3
C 6.383094 6.495705 5.455324 6 -1.19239314 0.28371835 3.24879017
H 6.700478 6.112991 4.544517 1 0.68250651 -1.18019839 -1.51387125
H 6.160474 7.536567 5.484207 1 0.01844099 1.13825544 -0.37360572
C 6.119520 5.877104 6.632866 6 0.77318887 -1.76727576 -1.91768797
H 5.756036 6.382344 7.493619 1 -0.30994054 0.71294222 0.69159331
H 6.233652 4.769905 6.763057 1 0.02686856 0.81077379 -0.14594158
6
energy=-373.329051 Lattice="12.718 0.0 0.0 0.0 12.718 0.0 0.0 0.0 12.718" Properties=species:S:1:pos:R:3:Z:I:1:force:R:3
C 6.101401 6.297343 6.769752 6 -0.45750140 0.50857023 -0.18065715
H 5.869406 7.321940 6.915167 1 -0.01114574 1.19983083 0.39454480
H 5.874659 5.634809 7.579540 1 0.06379426 -0.45578853 0.57075497
C 6.440874 5.846369 5.578325 6 0.00069728 -0.72488706 -0.49279855
H 6.491701 4.764864 5.555494 1 0.38732668 -0.36143463 -0.75374154
H 6.579000 6.434809 4.656919 1 0.01746192 -0.17156007 0.47789231
6
energy=-373.405903 Lattice="12.718 0.0 0.0 0.0 12.718 0.0 0.0 0.0 12.718" Properties=species:S:1:pos:R:3:Z:I:1:force:R:3
C 5.874196 7.792561 10.068932 6 0.01346333 -0.35790553 0.25954482
H 5.862351 8.708120 9.497570 1 -0.01334661 0.24346205 -0.24237344
H 5.780047 7.858818 11.128775 1 -0.20211456 0.37697747 0.94948851
C 6.028665 6.591228 9.531713 6 0.58312610 -0.11762703 -1.64102834
H 6.100403 5.644737 10.072968 1 -0.13993496 0.20204309 0.10146095
H 6.210376 6.555131 8.433548 1 -0.24316277 -0.33596526 0.57690711
6
energy=-373.318815 Lattice="12.718 0.0 0.0 0.0 12.718 0.0 0.0 0.0 12.718" Properties=species:S:1:pos:R:3:Z:I:1:force:R:3
C 6.430282 5.639604 5.347399 6 -0.10178850 0.60975555 0.80638337
H 6.562862 4.638794 5.671975 1 0.06929796 -1.19126237 0.17733323
H 6.592152 5.844070 4.304113 1 0.00693530 0.22036067 -0.45858897
C 6.139680 6.580545 6.245887 6 0.25385600 0.87298528 -1.57115444
H 6.062477 7.620295 5.974223 1 -0.07952633 0.54416975 -0.63979994
H 5.994937 6.524444 7.280616 1 -0.14817895 -1.05162822 1.68854801
6
energy=-373.187262 Lattice="12.718 0.0 0.0 0.0 12.718 0.0 0.0 0.0 12.718" Properties=species:S:1:pos:R:3:Z:I:1:force:R:3
C 6.069307 6.241115 6.582715 6 0.44264812 0.42283519 1.30386391
H 5.947978 7.352185 6.846014 1 -0.08301635 -1.62184841 -0.27032907
H 6.042731 5.494131 7.468415 1 -0.11554752 1.14894301 -1.55702982
C 6.438289 5.915067 5.339791 6 0.68271322 -0.36801769 -1.63531688
H 6.731840 4.922437 4.902604 1 -0.51885722 0.34068787 1.13256250
H 6.585460 6.629504 4.488097 1 -0.40682440 0.08708384 1.03049271
6
energy=-373.269460 Lattice="12.718 0.0 0.0 0.0 12.718 0.0 0.0 0.0 12.718" Properties=species:S:1:pos:R:3:Z:I:1:force:R:3
C 6.058839 5.974717 8.773850 6 0.07288928 0.70195023 -1.16965686
H 6.038510 6.046965 9.847162 1 -0.09116264 0.13189306 0.47602569
H 5.947588 5.003298 8.348967 1 -0.13296984 -0.97191523 -0.21730979
C 6.235208 7.045219 7.967787 6 0.11472373 -1.54481450 2.24014105
H 6.366240 6.915744 6.914303 1 -0.07245477 0.44000503 -0.66776636
H 6.398375 7.914978 8.575115 1 0.10974042 1.23755511 -0.66029319
6
energy=-373.329033 Lattice="12.718 0.0 0.0 0.0 12.718 0.0 0.0 0.0 12.718" Properties=species:S:1:pos:R:3:Z:I:1:force:R:3
C 6.101972 6.541275 6.373511 6 0.40861646 0.74758323 -0.74727161
H 6.039538 7.609598 6.292390 1 -0.21983256 0.72421394 -0.43144479
H 6.023412 6.238524 7.390386 1 -0.21167342 -0.80294375 0.80546652
C 6.418293 5.737229 5.360644 6 0.11705624 0.33153833 0.77256203
H 6.580432 4.728300 5.635889 1 0.08949759 -1.40713954 -0.09288323
H 6.653813 6.004550 4.343301 1 -0.18201881 0.40528997 -0.32014268
6
energy=-373.268261 Lattice="12.718 0.0 0.0 0.0 12.718 0.0 0.0 0.0 12.718" Properties=species:S:1:pos:R:3:Z:I:1:force:R:3
C 6.443905 6.218845 5.625290 6 0.97798149 -0.27171849 -2.17347076
H 6.897190 5.350472 5.094500 1 -0.38031374 -0.07493486 0.91472717
H 6.416638 7.014779 4.817638 1 -0.48348087 -0.20656360 1.45540895
C 6.139018 6.304995 6.916593 6 0.28613005 0.12685215 0.40171664
H 5.805691 7.270585 7.290032 1 -0.23266083 0.05569116 0.22680180
H 6.298720 5.516617 7.690569 1 -0.16790755 0.36400368 -0.82846711
6
energy=-373.319645 Lattice="12.718 0.0 0.0 0.0 12.718 0.0 0.0 0.0 12.718" Properties=species:S:1:pos:R:3:Z:I:1:force:R:3
C 6.456409 5.945250 5.799657 6 0.55505066 0.29865956 0.01976768
H 6.838978 4.938825 6.067999 1 -0.26143921 0.27442792 -1.00916026
H 6.486810 6.420180 4.769737 1 -0.08327449 -1.01136781 1.09286464
C 6.149555 6.682224 6.869643 6 -0.10400840 1.29997691 -0.22085535
H 5.882101 7.758135 6.793752 1 -0.02213361 -0.58997347 -0.04397669
H 6.235261 6.316458 7.887005 1 -0.08456673 -0.27006424 0.15617046
6
energy=-373.255581 Lattice="12.718 0.0 0.0 0.0 12.718 0.0 0.0 0.0 12.718" Properties=species:S:1:pos:R:3:Z:I:1:force:R:3
C 6.452836 5.827321 5.801006 6 0.05148021 -1.03890640 1.77507238
H 6.612121 4.849235 6.222663 1 0.36088904 -0.86162408 -0.73132768
H 6.439341 6.078020 4.788014 1 0.17987039 0.04600375 -1.72723286
C 6.174060 6.708766 6.727975 6 -1.10904049 1.74287083 1.00397228
H 5.866105 7.711902 6.461048 1 0.13813724 0.51429968 -0.16359993
H 6.036925 6.528264 7.799955 1 0.37939637 -0.40122711 -0.16678604
6
energy=-373.306269 Lattice="12.718 0.0 0.0 0.0 12.718 0.0 0.0 0.0 12.718" Properties=species:S:1:pos:R:3:Z:I:1:force:R:3
C 6.131474 5.777279 6.598219 6 0.63116977 -0.93708190 0.69667072
H 5.879611 6.156246 7.631719 1 0.04518768 -0.67035752 -1.11577781
H 6.421225 4.716370 6.399751 1 -0.54918391 0.53667909 0.71488700
C 6.333348 6.606033 5.589193 6 0.64695790 1.45619365 -1.39070607
H 6.754913 6.333178 4.569223 1 -0.68584432 -0.00987819 1.24639200
H 6.202142 7.695721 5.729408 1 -0.08736255 -0.37662112 -0.14305114
6
energy=-373.379235 Lattice="12.718 0.0 0.0 0.0 12.718 0.0 0.0 0.0 12.718" Properties=species:S:1:pos:R:3:Z:I:1:force:R:3
C 6.404068 5.535898 5.496381 6 -0.13591478 0.33814710 0.36551446
H 6.395300 4.680250 6.156896 1 0.12597489 -0.69380086 -0.18645191
H 6.561755 5.382890 4.410243 1 -0.01710093 0.22928909 0.63634849
C 6.177386 6.709545 6.111921 6 -0.19935011 -0.66246063 -0.62839040
H 6.121825 7.598723 5.490837 1 -0.01398270 0.46952954 0.33846232
H 5.942902 6.720942 7.192143 1 0.24321625 0.30524930 -0.52560380
6
energy=-373.296282 Lattice="12.718 0.0 0.0 0.0 12.718 0.0 0.0 0.0 12.718" Properties=species:S:1:pos:R:3:Z:I:1:force:R:3
C 5.938857 6.568104 9.367140 6 -0.01686851 1.09887022 -1.84356148
H 5.872989 7.394678 10.108207 1 0.34892620 -0.38120900 -0.56898502
H 5.489350 5.654000 9.695895 1 0.01182400 -0.84869039 0.19792932
C 6.296119 6.780686 8.059424 6 -0.16834001 0.64516892 0.61271643
H 6.290735 6.070881 7.185628 1 -0.12322741 0.22426515 1.24003931
H 6.591783 7.812747 7.739312 1 -0.05621875 -0.73838896 0.35833799
6
energy=-373.312529 Lattice="12.718 0.0 0.0 0.0 12.718 0.0 0.0 0.0 12.718" Properties=species:S:1:pos:R:3:Z:I:1:force:R:3
C 6.133478 5.821908 6.640037 6 -0.10882510 0.17578593 0.72938701
H 5.779619 6.263338 7.617186 1 0.28862813 0.07526447 -1.10408545
H 6.268411 4.729611 6.814287 1 0.11411181 0.57061922 -0.87138039
C 6.358974 6.571448 5.531073 6 0.01579584 -1.15868441 0.25153737
H 6.714080 6.145579 4.540012 1 -0.40715607 0.47472420 1.23496344
H 6.167799 7.648047 5.599592 1 0.09690135 -0.13354165 -0.24975868
6
energy=-373.293107 Lattice="12.718 0.0 0.0 0.0 12.718 0.0 0.0 0.0 12.718" Properties=species:S:1:pos:R:3:Z:I:1:force:R:3
C 6.353866 6.812480 5.928314 6 0.08461198 3.29758254 -1.67301082
H 6.581868 6.899709 4.805566 1 -0.27735332 -0.75200605 1.61304906
H 6.162922 7.830073 6.373445 1 0.23312775 -0.75869246 -0.43925478
C 6.274843 5.784555 6.731012 6 -0.29064182 -1.03317489 0.36278960
H 6.006521 5.947794 7.778832 1 0.11931367 -0.29139978 -0.08128034
H 6.382487 4.783025 6.338177 1 0.13141946 -0.47650906 0.21589209
6
energy=-373.244178 Lattice="12.718 0.0 0.0 0.0 12.718 0.0 0.0 0.0 12.718" Properties=species:S:1:pos:R:3:Z:I:1:force:R:3
C 6.397817 5.470672 6.472259 6 0.14736134 1.07618536 -0.39028345
H 6.248719 4.699218 7.269756 1 0.25619159 0.18024372 -1.21653067
H 6.755693 5.345350 5.414553 1 -0.41516969 -0.77055708 1.03366186
C 6.191247 6.747612 6.843767 6 0.30630757 -0.23010053 1.86056059
H 6.389772 7.666910 6.286851 1 -0.13745127 -0.32957658 -0.36146754
H 5.984568 6.917721 7.935699 1 -0.15742259 0.07825004 -0.92488869
6
energy=-373.138098 Lattice="12.718 0.0 0.0 0.0 12.718 0.0 0.0 0.0 12.718" Properties=species:S:1:pos:R:3:Z:I:1:force:R:3
C 5.895182 7.128655 9.646038 6 -0.03207813 -3.32292130 -2.12021906
H 5.887377 8.125827 9.822607 1 0.38506823 3.40461456 0.16449570
H 5.420368 6.627304 10.453650 1 -0.14205664 -1.20051217 0.69334269
C 6.251907 6.607439 8.440224 6 -0.06759332 1.97869875 0.10820238
H 6.227473 5.589074 8.039419 1 -0.12428927 0.00603953 0.62250617
H 6.555624 7.385487 7.682567 1 -0.01731896 -0.86717407 0.53942863
6
energy=-373.325395 Lattice="12.718 0.0 0.0 0.0 12.718 0.0 0.0 0.0 12.718" Properties=species:S:1:pos:R:3:Z:I:1:force:R:3
C 6.013004 6.641850 8.505920 6 0.60391348 0.43396499 -0.75448562
H 6.120010 7.731976 8.574948 1 -0.37498075 -0.23041060 0.67462556
H 5.748285 5.953100 9.311330 1 -0.22336937 0.59790841 0.22566897
C 6.379978 6.093105 7.348725 6 0.53297053 -1.19817658 -0.51721120
H 6.365704 4.984658 7.314665 1 -0.00779816 0.45007913 -0.36337118
H 6.811262 6.591460 6.449124 1 -0.53152762 -0.05433053 0.73489380
6
energy=-373.341950 Lattice="12.718 0.0 0.0 0.0 12.718 0.0 0.0 0.0 12.718" Properties=species:S:1:pos:R:3:Z:I:1:force:R:3
C 6.481195 5.850607 5.877078 6 -0.83434157 0.93790517 -0.07028013
H 6.680845 4.777136 6.113781 1 0.03019814 0.93454473 -0.20037393
H 6.368917 6.190119 4.814428 1 0.39512793 -0.70056081 0.68262529
C 6.163284 6.785487 6.804873 6 -0.18135289 -0.28821213 -0.53556734
H 5.825233 7.816022 6.587783 1 0.36316447 -0.45286364 -0.42216876
H 6.107655 6.594995 7.863646 1 0.22831412 -0.43159186 0.53288671
6
energy=-373.368303 Lattice="12.718 0.0 0.0 0.0 12.718 0.0 0.0 0.0 12.718" Properties=species:S:1:pos:R:3:Z:I:1:force:R:3
C 6.357158 5.525376 6.828413 6 -0.19979286 0.84762904 0.51835379
H 6.175326 4.859396 7.650127 1 0.06119898 -0.57316872 0.34654999
H 6.580131 5.145670 5.867560 1 0.35032180 -0.74314808 -1.00706069
C 6.234329 6.841115 7.000416 6 -0.27314083 -0.53026470 -1.12368087
H 6.291119 7.494198 6.119771 1 0.15586861 0.18633004 0.47279947
H 5.894832 7.188338 7.946072 1 -0.09434824 0.81167779 0.79616323
6
energy=-373.369367 Lattice="12.718 0.0 0.0 0.0 12.718 0.0 0.0 0.0 12.718" Properties=species:S:1:pos:R:3:Z:I:1:force:R:3
C 6.099045 6.225203 6.804288 6 -0.04404046 1.15518205 0.81677630
H 5.766422 7.190887 7.328746 1 0.36236537 -1.14755770 -1.06392736
H 6.210319 5.420562 7.546486 1 -0.03183079 -0.15492605 -0.54378871
C 6.424984 6.162732 5.499551 6 -0.28496637 0.82553502 0.64814935
H 6.797424 5.254457 5.024145 1 -0.04884431 0.03483950 -0.00842860
H 6.341105 7.091988 4.893947 1 0.04935339 -0.71037266 0.14956992
6
energy=-373.039734 Lattice="12.718 0.0 0.0 0.0 12.718 0.0 0.0 0.0 12.718" Properties=species:S:1:pos:R:3:Z:I:1:force:R:3
C 6.117598 7.302262 8.559814 6 -0.10034097 -3.66999373 1.53412539
H 6.089388 7.953836 7.781363 1 0.11139004 1.12522713 -3.38837855
H 6.005401 7.941262 9.400789 1 0.14058545 -0.04898212 1.64911189
C 6.154177 5.925735 8.626566 6 -0.71807363 2.13970958 0.98793064
H 6.056407 5.502443 9.647688 1 0.23139482 0.03880106 -0.52916580
H 6.076296 5.192646 7.820834 1 0.33322961 0.41203912 -0.24517132
6
energy=-373.206426 Lattice="12.718 0.0 0.0 0.0 12.718 0.0 0.0 0.0 12.718" Properties=species:S:1:pos:R:3:Z:I:1:force:R:3
C 6.063262 7.729416 9.394481 6 -0.12268439 -1.17282857 1.49870070
H 6.131486 7.840788 8.358278 1 -0.29610388 -0.78347072 -1.98485449
H 6.306804 8.654756 9.796424 1 0.30247302 1.85277991 1.49344639
C 5.839715 6.632462 10.135251 6 0.76846472 0.43236010 -0.31801741
H 5.952085 6.557022 11.233863 1 -0.27828921 0.38523740 -0.53730181
H 5.746045 5.701701 9.609585 1 -0.37329873 -0.72598646 -0.14435212
6
energy=-373.325636 Lattice="12.718 0.0 0.0 0.0 12.718 0.0 0.0 0.0 12.718" Properties=species:S:1:pos:R:3:Z:I:1:force:R:3
C 6.205871 6.159606 8.526938 6 -0.41743741 0.40495727 1.11454728
H 6.173865 5.167728 8.964073 1 -0.07164178 0.02617796 0.61357158
H 6.369963 6.127028 7.495096 1 0.44102987 0.08951508 -1.81234415
C 5.989024 7.334711 9.122838 6 -0.28020468 0.61210605 0.47411896
H 5.999290 8.311127 8.621144 1 0.17151533 -0.40585458 -0.53251595
H 5.726833 7.527930 10.168370 1 0.15655304 -0.72193594 0.14728472
6
energy=-373.397091 Lattice="12.718 0.0 0.0 0.0 12.718 0.0 0.0 0.0 12.718" Properties=species:S:1:pos:R:3:Z:I:1:force:R:3
C 6.253299 6.906310 6.134460 6 -0.04168790 0.23968304 0.99950061
H 6.395419 7.373765 5.173166 1 0.03263195 -0.04404766 -0.47409428
H 6.078843 7.600554 6.953517 1 -0.09451022 0.11884419 0.16076245
C 6.333785 5.595280 6.344668 6 0.36606725 0.22663879 -2.39446649
H 6.230600 5.067781 7.248394 1 -0.20738070 -0.38599022 1.38393943
H 6.537517 4.985292 5.451121 1 -0.05242380 -0.15764319 0.32660233
6
energy=-373.334722 Lattice="12.718 0.0 0.0 0.0 12.718 0.0 0.0 0.0 12.718" Properties=species:S:1:pos:R:3:Z:I:1:force:R:3
C 6.422375 5.626900 6.561775 6 0.01908480 2.41432673 0.22908700
H 6.346530 4.611045 6.858382 1 -0.28928994 -0.87571374 1.01826557
H 6.789573 5.658022 5.535983 1 -0.01260973 0.54629399 -0.15371248
C 6.152608 6.748746 7.311248 6 0.03221749 -1.44161549 -1.40162761
H 6.196384 7.775606 6.882593 1 0.15927841 -0.73019331 0.27774259
H 5.762957 6.644708 8.325606 1 0.09178433 0.08550518 0.02399098
6