6
energy=-373.349294 Lattice="12.718 0.0 0.0 0.0 12.718 0.0 0.0 0.0 12.718" Properties=species:S:1:pos:R:3:Z:I:1:force:R:3
C 6.021052 6.218344 8.600867 6 0.02492172 -1.71739992 -0.57720073
H 6.011418 6.922963 9.408488 1 -0.05712995 0.45622047 0.38912954
H 5.814081 5.155712 8.824452 1 -0.16362872 0.47972243 0.21920830
C 6.365987 6.519375 7.354485 6 0.49930756 0.63146493 -0.06216829
H 6.489758 5.887637 6.490564 1 -0.32235383 -0.93967203 0.01955480
H 6.701226 7.500546 7.094895 1 0.01780387 1.08963996 0.01779205
6
energy=-373.217906 Lattice="12.718 0.0 0.0 0.0 12.718 0.0 0.0 0.0 12.718" Properties=species:S:1:pos:R:3:Z:I:1:force:R:3
C 6.108186 6.034802 8.835533 6 -0.27138373 1.64954178 -0.11285557
H 6.017754 5.605248 9.869142 1 0.17969041 -0.05460153 -1.08200583
H 6.146524 5.364318 7.898054 1 -0.03890699 1.02137095 1.60141892
C 6.090383 7.413364 8.746189 6 0.19229346 -1.13390410 -1.15785137
H 6.141475 7.959761 7.776234 1 0.00082275 -0.73381085 0.24246857
H 6.053664 8.174902 9.534613 1 -0.06244803 -0.75886318 0.49851309
6
energy=-373.397889 Lattice="12.718 0.0 0.0 0.0 12.718 0.0 0.0 0.0 12.718" Properties=species:S:1:pos:R:3:Z:I:1:force:R:3
C 6.075066 6.397076 6.732417 6 0.72821458 -1.21396985 -0.56618920
H 6.017161 7.475279 6.851815 1 -0.11652196 0.13185346 -0.37310230
H 5.973915 5.830147 7.649539 1 -0.26758312 -0.12747950 0.34132344
C 6.432062 5.735058 5.604497 6 0.01474477 1.56660924 0.09175657
H 6.595478 4.652818 5.535144 1 -0.18635472 0.24867830 0.14845869
H 6.642148 6.346916 4.697731 1 -0.17152099 -0.60176095 0.35132710
6
energy=-373.255127 Lattice="12.718 0.0 0.0 0.0 12.718 0.0 0.0 0.0 12.718" Properties=species:S:1:pos:R:3:Z:I:1:force:R:3
C 6.358158 5.493499 5.697308 6 0.02508781 -3.59064429 -0.10342578
H 6.221363 4.762646 6.526896 1 0.21435251 0.33260071 -0.44834620
H 6.517858 4.992827 4.704453 1 0.03025111 0.77561496 0.73192417
C 6.230039 6.764770 5.928914 6 -1.03837829 2.15937339 0.58797315
H 6.243153 7.417045 5.037441 1 0.08889338 0.38127122 0.77969376
H 5.906076 7.108569 6.971120 1 0.67968652 -0.04081269 -1.55133174
6
energy=-373.388591 Lattice="12.718 0.0 0.0 0.0 12.718 0.0 0.0 0.0 12.718" Properties=species:S:1:pos:R:3:Z:I:1:force:R:3
C 6.103057 5.987734 6.631507 6 -0.25668987 0.56150876 0.56112053
H 5.769895 6.791882 7.314151 1 0.09453593 -0.69808380 0.17582913
H 6.171918 4.927723 6.969442 1 -0.07199351 0.85098948 -0.13321049
C 6.399956 6.363266 5.390734 6 -0.09673423 0.03865451 -0.53713160
H 6.688141 5.581720 4.704221 1 0.26322664 -0.10381762 -0.57933012
H 6.315527 7.393529 4.976510 1 0.06790957 -0.64641591 0.50972465
6
energy=-373.261413 Lattice="12.718 0.0 0.0 0.0 12.718 0.0 0.0 0.0 12.718" Properties=species:S:1:pos:R:3:Z:I:1:force:R:3
C 6.371864 5.362711 6.358064 6 -0.42543200 3.92751150 -0.20143631
H 6.190597 4.674182 7.110228 1 -0.28821676 -1.25059164 1.84713737
H 6.552104 4.917533 5.408550 1 0.41478403 -0.07679222 -0.98738505
C 6.237835 6.729198 6.534266 6 -0.37146965 -1.60682595 -0.54842955
H 6.317522 7.407320 5.668241 1 0.19577319 -0.27856020 0.21186162
H 5.881763 7.250509 7.452286 1 0.47340368 -0.72866864 -0.32252764
6
energy=-373.248514 Lattice="12.718 0.0 0.0 0.0 12.718 0.0 0.0 0.0 12.718" Properties=species:S:1:pos:R:3:Z:I:1:force:R:3
C 6.115455 6.249765 7.458477 6 0.08354960 1.06812341 -0.40655392
H 6.129620 7.254605 7.772395 1 -0.15176976 1.39401765 0.91317011
H 5.839963 5.537428 8.179923 1 -0.40434431 -1.24959405 0.72064165
C 6.459250 6.064746 6.199716 6 0.47716264 -1.05141277 0.31518868
H 6.544682 5.026312 5.905993 1 0.06496514 -0.09299173 -0.94814022
H 6.833071 6.907708 5.636163 1 -0.07183822 -0.05875952 -0.59659303
6
energy=-373.353390 Lattice="12.718 0.0 0.0 0.0 12.718 0.0 0.0 0.0 12.718" Properties=species:S:1:pos:R:3:Z:I:1:force:R:3
C 6.463320 5.945105 5.154125 6 0.06363331 0.10235260 0.32471771
H 6.747024 4.887491 4.888758 1 -0.32482569 1.20483420 -0.03488989
H 6.492926 6.801995 4.455860 1 0.15789979 -0.84087063 -0.27637836
C 6.113536 6.276277 6.403588 6 -0.00147633 0.20012196 1.04409540
H 5.891533 7.334469 6.726937 1 0.14463186 -1.01483417 -0.52019933
H 6.086582 5.537038 7.234895 1 -0.04276519 0.34433678 -0.52867524
6
energy=-373.367942 Lattice="12.718 0.0 0.0 0.0 12.718 0.0 0.0 0.0 12.718" Properties=species:S:1:pos:R:3:Z:I:1:force:R:3
C 6.171617 6.680991 6.393013 6 -0.79375976 0.97441743 0.23486067
H 6.147868 7.633233 5.784182 1 0.37597011 -1.18270779 0.30933633
H 5.835624 6.867323 7.423881 1 0.26900855 -0.23120507 -0.07692129
C 6.369312 5.452827 5.907422 6 -0.21339092 -0.22562835 -0.06961164
H 6.248952 4.493047 6.472053 1 0.20559275 0.95751807 -0.25741543
H 6.588821 5.369530 4.845387 1 0.15675873 -0.29267557 -0.13897542
6
energy=-373.304502 Lattice="12.718 0.0 0.0 0.0 12.718 0.0 0.0 0.0 12.718" Properties=species:S:1:pos:R:3:Z:I:1:force:R:3
C 6.348909 6.768452 7.278309 6 -0.54225119 -0.37269710 1.20052143
H 6.325998 6.581843 6.225239 1 0.18092403 -0.58357964 -0.64800125
H 6.449490 7.806555 7.534440 1 0.21645362 0.64091323 0.16937720
C 6.100446 5.890257 8.263833 6 -0.11371380 0.91984264 -0.36335936
H 5.967964 6.159180 9.296007 1 0.31673288 0.79831987 0.56385515
H 5.876125 4.861285 8.193298 1 -0.05646558 -1.39672297 -0.91663339
6
energy=-373.308372 Lattice="12.718 0.0 0.0 0.0 12.718 0.0 0.0 0.0 12.718" Properties=species:S:1:pos:R:3:Z:I:1:force:R:3
C 6.211709 6.931370 7.278205 6 0.40564324 0.25518114 0.87944441
H 6.379344 7.433531 6.279285 1 -0.32628402 -0.74981341 0.99685752
H 6.128254 7.633574 8.169700 1 -0.01723257 -0.75554440 -1.09015880
C 6.254503 5.593985 7.481787 6 0.18017378 -0.30236709 -1.75239781
H 6.179380 5.021752 8.408816 1 -0.12386915 0.64487016 0.32602486
H 6.387644 4.875716 6.616224 1 -0.11784094 0.91567025 0.63761604
6
energy=-373.217036 Lattice="12.718 0.0 0.0 0.0 12.718 0.0 0.0 0.0 12.718" Properties=species:S:1:pos:R:3:Z:I:1:force:R:3
C 6.200284 5.494366 6.567679 6 -0.06060969 -0.42988310 0.63995318
H 5.979242 5.661698 7.676957 1 0.28864973 -0.97225050 -1.45643585
H 6.325735 4.529758 6.041303 1 -0.18991159 0.08634490 0.85849967
C 6.332238 6.602928 5.864707 6 0.13557848 2.10836524 -1.22702592
H 6.544387 6.801253 4.762332 1 -0.21919750 -0.91273559 1.29843014
H 6.200362 7.542101 6.412337 1 0.04686096 0.13222987 -0.11969831
6
energy=-373.226844 Lattice="12.718 0.0 0.0 0.0 12.718 0.0 0.0 0.0 12.718" Properties=species:S:1:pos:R:3:Z:I:1:force:R:3
C 6.010622 6.497412 9.579676 6 0.10521322 -1.27958394 -0.34977570
H 6.056445 5.609386 10.343558 1 -0.19926938 2.19622401 -0.76609364
H 6.054166 6.040573 8.563584 1 -0.03129395 0.58849611 0.36793850
C 5.936291 7.834802 9.772136 6 0.35705501 -1.31909874 0.69482570
H 5.975702 8.629396 9.021327 1 -0.13949993 -0.46528927 -0.22492027
H 5.929955 8.180957 10.799700 1 -0.09143466 0.28091070 0.27319790
6
energy=-373.325035 Lattice="12.718 0.0 0.0 0.0 12.718 0.0 0.0 0.0 12.718" Properties=species:S:1:pos:R:3:Z:I:1:force:R:3
C 6.218991 6.843307 6.124085 6 0.02213464 3.79250586 0.57985823
H 6.362026 7.416377 5.187132 1 -0.20166668 -0.36845015 0.30813665
H 6.091136 7.508063 7.040332 1 0.01373947 -0.86452789 -1.03651321
C 6.309613 5.553341 6.201283 6 0.30561285 -2.34498866 1.02382995
H 6.251122 5.072900 7.221720 1 0.00051833 0.07485875 -1.25948201
H 6.522097 4.976819 5.293337 1 -0.14153470 -0.28176431 0.37778480
6
energy=-373.377503 Lattice="12.718 0.0 0.0 0.0 12.718 0.0 0.0 0.0 12.718" Properties=species:S:1:pos:R:3:Z:I:1:force:R:3
C 6.164289 6.819212 6.535297 6 0.10476790 0.36299118 0.13403376
H 6.113767 7.774479 6.015646 1 -0.18292898 0.09579886 0.08604923
H 6.102133 6.782400 7.618538 1 -0.18857513 0.37080014 0.18440428
C 6.403155 5.683889 5.906070 6 1.10953362 -1.93806861 -0.23666764
H 6.597076 4.748446 6.517353 1 -0.45113740 0.88025122 -0.74508412
H 6.623933 5.575080 4.821628 1 -0.39052102 0.22370310 0.57906273
6
energy=-373.316359 Lattice="12.718 0.0 0.0 0.0 12.718 0.0 0.0 0.0 12.718" Properties=species:S:1:pos:R:3:Z:I:1:force:R:3
C 6.343856 6.702779 6.841448 6 -0.05941618 -2.16542474 0.74431587
H 6.492262 6.421158 5.828173 1 0.02912702 -0.30024284 -1.06030622
H 6.478357 7.714256 7.075174 1 0.03994829 1.62446990 0.38393128
C 6.131808 5.800141 7.813704 6 0.03096639 1.49882360 0.43863823
H 6.034835 6.165802 8.829694 1 -0.01207442 0.27943078 0.36031208
H 6.030306 4.740623 7.808556 1 -0.02796488 -0.94321450 -0.86374370
6
energy=-373.091253 Lattice="12.718 0.0 0.0 0.0 12.718 0.0 0.0 0.0 12.718" Properties=species:S:1:pos:R:3:Z:I:1:force:R:3
C 6.431786 6.054122 5.627547 6 1.27411263 -0.72974953 -0.45674395
H 6.707830 5.032353 5.169231 1 -0.51834505 1.80574772 -0.05774599
H 6.680060 7.091637 5.139971 1 -0.57166926 -2.23417455 0.52139644
C 6.095500 6.035464 6.924452 6 0.11507597 0.30135356 -0.02180400
H 6.029688 7.026103 7.329029 1 -0.39190839 0.52467614 0.88205562
H 5.948261 5.191387 7.634088 1 0.09365456 0.32490077 -0.86472072
6
energy=-373.231064 Lattice="12.718 0.0 0.0 0.0 12.718 0.0 0.0 0.0 12.718" Properties=species:S:1:pos:R:3:Z:I:1:force:R:3
C 6.446430 5.983691 5.584978 6 -0.04444155 0.23809152 -2.07001669
H 6.730524 4.891692 5.501468 1 -0.10999856 1.32818708 -0.37813807
H 6.326733 6.681958 4.673957 1 0.44512410 -1.43747601 1.04899850
C 6.130124 6.458486 6.776252 6 -0.50721422 -0.69264695 0.52145917
H 5.689914 7.447446 6.930949 1 0.30408459 -0.12404553 0.24541866
H 6.160594 5.678699 7.543404 1 -0.09071064 0.68526633 0.64142693
6
energy=-373.283482 Lattice="12.718 0.0 0.0 0.0 12.718 0.0 0.0 0.0 12.718" Properties=species:S:1:pos:R:3:Z:I:1:force:R:3
C 6.163428 6.579113 6.711935 6 -1.31144096 0.34745450 1.66208003
H 6.095614 7.581093 6.244754 1 0.25632014 -0.35325594 0.60221347
H 5.782865 6.382825 7.779045 1 0.65455243 0.85431443 -1.36602963
C 6.429458 5.505436 5.989911 6 -0.02426043 0.22301611 -0.89400149
H 6.286986 4.533389 6.448870 1 0.34967439 -0.38946533 -0.34100566
H 6.665756 5.669293 4.924404 1 0.07704470 -0.67466207 0.33887472
6
energy=-373.359537 Lattice="12.718 0.0 0.0 0.0 12.718 0.0 0.0 0.0 12.718" Properties=species:S:1:pos:R:3:Z:I:1:force:R:3
C 6.196650 5.670859 7.123018 6 0.11173714 0.79957200 0.26732807
H 6.091540 6.052267 8.136055 1 -0.09246465 -0.23694584 0.29172272
H 6.181791 4.591289 6.963238 1 -0.11851046 0.09024527 0.02280930
C 6.397619 6.542560 6.125516 6 0.24564131 -1.98531318 -0.54091473
H 6.541091 6.013796 5.155719 1 -0.03800350 1.12526519 0.12539588
H 6.513773 7.608878 6.264331 1 -0.11068453 0.20908329 -0.17311661
6
energy=-373.245410 Lattice="12.718 0.0 0.0 0.0 12.718 0.0 0.0 0.0 12.718" Properties=species:S:1:pos:R:3:Z:I:1:force:R:3
C 6.405331 5.881817 5.510507 6 0.55974704 -2.53388311 -1.33281455
H 6.634774 4.776178 5.693329 1 -0.06308052 1.26766789 -0.89785661
H 6.404205 6.275720 4.458103 1 0.04204117 -0.27783309 1.09960762
C 6.089497 6.513593 6.611907 6 -0.94646695 2.65596175 0.62820271
H 5.773166 7.619244 6.546564 1 0.46950537 -1.56266671 0.53900080
H 6.086855 5.969891 7.563916 1 -0.05858468 0.45381494 -0.03458959
6
energy=-373.271477 Lattice="12.718 0.0 0.0 0.0 12.718 0.0 0.0 0.0 12.718" Properties=species:S:1:pos:R:3:Z:I:1:force:R:3
C 6.278712 5.538706 7.061216 6 0.16321272 -1.74067305 1.70049131
H 6.154450 5.236436 8.175505 1 0.15411203 0.71857808 -1.63422982
H 6.420664 4.584393 6.460442 1 -0.16464174 1.52210239 0.07579155
C 6.306757 6.831358 6.708725 6 -0.50256207 -1.07010933 0.48426557
H 6.360725 7.139685 5.680178 1 0.20964225 0.30257638 -0.45377175
H 6.120655 7.562731 7.494356 1 0.13955289 0.26358146 -0.18024474
6
energy=-373.264931 Lattice="12.718 0.0 0.0 0.0 12.718 0.0 0.0 0.0 12.718" Properties=species:S:1:pos:R:3:Z:I:1:force:R:3
C 6.305842 5.577237 6.334179 6 -0.10148357 -1.21019341 1.26711202
H 6.091581 5.267083 7.427404 1 0.46119504 -0.16735014 -1.93070754
H 6.561482 4.911515 5.468865 1 -0.32443437 -0.06201248 1.24313235
C 6.267704 6.861397 6.057886 6 -0.05269583 0.79242742 -0.57350040
H 6.436823 7.174487 5.044970 1 0.17408026 0.34824280 -0.62808341
H 6.050008 7.656414 6.743813 1 -0.15696185 0.30953379 0.62338446
6
energy=-373.352047 Lattice="12.718 0.0 0.0 0.0 12.718 0.0 0.0 0.0 12.718" Properties=species:S:1:pos:R:3:Z:I:1:force:R:3
C 6.317511 6.833342 7.356101 6 -0.14260480 0.51350058 1.36696243
H 6.367356 6.702498 6.288843 1 -0.00128452 -0.28953008 -0.46701140
H 6.448180 7.873837 7.693792 1 -0.07006518 -0.25367653 -0.04112380
C 6.099204 5.826574 8.229257 6 0.69770482 1.68670916 -1.36745042
H 6.106317 5.993691 9.297739 1 -0.16002763 -0.25967903 0.22361106
H 6.065848 4.882493 7.745848 1 -0.32283257 -1.38495039 0.28734001
6
energy=-373.227358 Lattice="12.718 0.0 0.0 0.0 12.718 0.0 0.0 0.0 12.718" Properties=species:S:1:pos:R:3:Z:I:1:force:R:3
C 6.234767 7.133764 8.165853 6 0.00158740 -0.03787032 -1.39646586
H 6.225908 7.089724 6.978026 1 0.02766406 -0.25332223 2.45312162
H 6.419775 8.194169 8.522425 1 -0.21538095 -1.32274148 -0.03951068
C 6.035696 6.052815 8.973262 6 -0.32597549 1.44565161 0.14261714
H 5.954575 6.172894 10.088256 1 0.30100698 -0.02592599 -0.96516916
H 5.788581 5.049234 8.612195 1 0.21067017 0.18643288 -0.19436011
6
energy=-373.392689 Lattice="12.718 0.0 0.0 0.0 12.718 0.0 0.0 0.0 12.718" Properties=species:S:1:pos:R:3:Z:I:1:force:R:3
C 6.215169 7.244833 8.640396 6 0.08498890 1.24241141 0.90852823
H 6.227913 6.744821 7.693612 1 -0.08818427 -0.84753700 -0.37629150
H 6.481950 8.307967 8.521987 1 0.00378672 -0.21489604 0.27916132
C 5.880818 6.731370 9.838890 6 -0.10241945 0.47911153 -1.18802432
H 5.821478 7.365935 10.732375 1 0.10501421 -0.34874417 -0.12924122
H 5.541865 5.703209 9.848147 1 -0.00494886 -0.31535940 0.50786369
6
energy=-373.389722 Lattice="12.718 0.0 0.0 0.0 12.718 0.0 0.0 0.0 12.718" Properties=species:S:1:pos:R:3:Z:I:1:force:R:3
C 6.206586 5.586339 6.320457 6 0.11018316 0.04719520 0.12296670
H 5.964601 5.653223 7.396011 1 0.04095822 -0.59664034 -0.42847516
H 6.428803 4.639122 5.800910 1 -0.20944941 0.19344377 0.52307537
C 6.286534 6.739099 5.665518 6 0.53367707 1.23161432 -1.08971092
H 6.601390 6.862572 4.589900 1 -0.40092834 -0.44151581 0.94157053
H 6.131008 7.712243 6.166184 1 -0.07583680 -0.43077219 -0.06390739
6
energy=-373.325927 Lattice="12.718 0.0 0.0 0.0 12.718 0.0 0.0 0.0 12.718" Properties=species:S:1:pos:R:3:Z:I:1:force:R:3
C 6.444410 6.381990 5.924355 6 -0.41936934 -0.07615767 1.19119243
H 6.562969 5.819757 5.030225 1 0.15077011 -0.98210657 -0.76722082
H 6.561115 7.444795 5.665230 1 -0.19894799 -0.02871564 0.93083823
C 6.150680 5.756945 7.098676 6 0.53691769 1.05096899 -0.47715698
H 6.018188 6.282525 8.074654 1 0.06145404 -0.22895022 -0.78430684
H 6.125853 4.659612 7.145538 1 -0.13057305 0.25998705 -0.08188352
6
energy=-373.242569 Lattice="12.718 0.0 0.0 0.0 12.718 0.0 0.0 0.0 12.718" Properties=species:S:1:pos:R:3:Z:I:1:force:R:3
C 6.257536 5.578035 6.387291 6 -0.45213293 0.30629060 0.04658945
H 5.950122 5.351445 7.381389 1 -0.17789475 0.22914819 1.25447041
H 6.395291 4.611598 5.881117 1 0.33704770 0.69396541 -0.68066868
C 6.277269 6.836406 5.907209 6 0.22882063 -0.90944252 -1.82697271
H 6.510045 6.894198 4.790958 1 -0.19668748 0.47737295 1.37361285
H 6.014957 7.773237 6.444957 1 0.26154823 -0.78634161 -0.16826700
6
energy=-373.335527 Lattice="12.718 0.0 0.0 0.0 12.718 0.0 0.0 0.0 12.718" Properties=species:S:1:pos:R:3:Z:I:1:force:R:3
C 6.295613 6.824653 6.735408 6 0.38868628 -1.27320605 2.16911170
H 6.480835 6.907169 5.676808 1 -0.13330974 0.09509180 -0.43268303
H 6.350369 7.748889 7.346972 1 -0.28131848 -0.43130132 -0.39263139
C 6.236286 5.584309 7.320515 6 0.21614406 1.55763712 -0.97741276
H 6.166166 5.295449 8.370890 1 -0.10570893 0.64971926 0.09870421
H 6.327749 4.733231 6.672673 1 -0.08420626 -0.59391703 -0.47199369
6
energy=-373.382025 Lattice="12.718 0.0 0.0 0.0 12.718 0.0 0.0 0.0 12.718" Properties=species:S:1:pos:R:3:Z:I:1:force:R:3
C 6.304983 5.505162 6.010907 6 -0.17835087 -0.06686004 -1.80658384
H 6.143197 4.869840 6.866177 1 0.05762823 0.06171938 0.60462414
H 6.419946 4.941255 5.050543 1 0.14316427 0.34127048 0.70999985
C 6.216649 6.844427 5.960824 6 -0.13868746 -1.46573657 0.16467053
H 6.289395 7.342062 5.001713 1 0.08298190 0.39093240 0.00005502
H 5.976270 7.360362 6.870651 1 0.03077150 0.74847335 0.32600634
6
energy=-373.287764 Lattice="12.718 0.0 0.0 0.0 12.718 0.0 0.0 0.0 12.718" Properties=species:S:1:pos:R:3:Z:I:1:force:R:3
C 6.344162 6.683278 5.704552 6 0.01945452 -0.37381450 0.22592402
H 6.672054 6.533892 4.683098 1 0.02840557 -0.36467114 -0.15264599
H 6.160512 7.681785 5.982865 1 -0.29510372 1.51909779 0.21485079
C 6.192713 5.743460 6.624614 6 0.68880674 -1.92597053 -0.15635198
H 5.949689 5.787926 7.670080 1 -0.43064980 1.11384280 0.52039628
H 6.432306 4.686246 6.454153 1 -0.00996972 0.04641873 -0.66416116
6
energy=-373.340435 Lattice="12.718 0.0 0.0 0.0 12.718 0.0 0.0 0.0 12.718" Properties=species:S:1:pos:R:3:Z:I:1:force:R:3
C 6.324929 5.852886 7.697506 6 -0.14702967 1.97403785 0.10292185
H 6.246426 4.856387 8.116814 1 0.13869980 -0.21181483 -0.02413136
H 6.582158 5.981180 6.626473 1 -0.08274690 -0.25044157 0.55806554
C 6.070710 6.941229 8.475722 6 -0.61249378 -0.95263194 -0.34454555
H 5.952458 7.992520 8.201826 1 0.53710949 -0.15153013 -0.69267883
H 5.718734 6.823816 9.495302 1 0.16947850 -0.40355550 0.40691902
6
energy=-373.326762 Lattice="12.718 0.0 0.0 0.0 12.718 0.0 0.0 0.0 12.718" Properties=species:S:1:pos:R:3:Z:I:1:force:R:3
C 6.182488 5.756125 7.372069 6 -0.39596508 -0.51740506 0.91885533
H 6.057827 6.220147 8.376401 1 0.13262634 -0.67757359 -0.43270000
H 6.013150 4.662499 7.250914 1 0.26858431 0.67770831 0.19311672
C 6.424914 6.574403 6.358087 6 -0.75266168 1.45877247 0.28482084
H 6.404261 6.228994 5.327400 1 0.31504984 0.19823888 -0.16239613
H 6.385630 7.679067 6.616866 1 0.43531482 -1.13225756 -0.79791827
6
energy=-373.144278 Lattice="12.718 0.0 0.0 0.0 12.718 0.0 0.0 0.0 12.718" Properties=species:S:1:pos:R:3:Z:I:1:force:R:3
C 6.355830 5.572647 5.986533 6 -0.26066634 -2.89162306 -1.17492608
H 6.233076 4.737586 6.789740 1 0.54690026 1.25958640 -1.72075830
H 6.428316 5.411084 4.863583 1 0.15401947 -0.82059644 1.40586530
C 6.188514 6.822894 6.286499 6 -1.02491187 2.41780852 1.34194095
H 6.073940 7.630093 5.543323 1 0.38380478 -0.30196805 0.25028524
H 5.957198 7.080012 7.327498 1 0.20103881 0.34199090 -0.10313885
6
energy=-373.268708 Lattice="12.718 0.0 0.0 0.0 12.718 0.0 0.0 0.0 12.718" Properties=species:S:1:pos:R:3:Z:I:1:force:R:3
C 6.281758 5.760119 6.677997 6 -0.24847056 -2.87197365 -0.66427326
H 5.925820 5.833890 7.707589 1 0.29959133 -0.22412168 0.02388402
H 6.398201 4.729024 6.172674 1 -0.00479357 1.30257681 1.22349117
C 6.358203 6.814682 5.902274 6 -0.49253939 0.93272130 -0.77939860
H 6.518753 6.731937 4.807685 1 0.13576309 0.31439215 0.68630763
H 6.052827 7.745342 6.376235 1 0.30898923 0.54422888 -0.47887910
6
energy=-373.293528 Lattice="12.718 0.0 0.0 0.0 12.718 0.0 0.0 0.0 12.718" Properties=species:S:1:pos:R:3:Z:I:1:force:R:3
C 6.196615 6.892976 6.424550 6 0.32273281 -1.64048223 -1.42939811
H 6.176719 7.579279 5.616727 1 -0.00993321 1.20393997 -0.59537690
H 6.025637 7.252729 7.406058 1 -0.10769742 0.11231924 1.06871476
C 6.401299 5.622367 6.043913 6 -0.33528392 -1.36334025 0.63263221
H 6.369839 4.739198 6.718059 1 0.11006026 0.72036860 0.19758685
H 6.518769 5.219061 5.019777 1 0.01954708 0.95373289 0.12839790
6
energy=-373.330931 Lattice="12.718 0.0 0.0 0.0 12.718 0.0 0.0 0.0 12.718" Properties=species:S:1:pos:R:3:Z:I:1:force:R:3
C 6.152058 6.945004 9.109198 6 -0.31830074 -0.07583577 0.91932225
H 6.178468 5.900747 8.930198 1 -0.09712966 -1.30829907 -0.17248515
H 6.459138 7.499850 8.228263 1 -0.03228434 0.68891884 0.23373504
C 5.782447 7.394966 10.321373 6 0.44059844 0.06217755 0.05560323
H 5.855426 8.457828 10.510410 1 -0.22887771 0.44252574 0.14372837
H 5.510856 6.793112 11.232042 1 0.23494398 0.18760993 -1.17609490
6
energy=-373.264022 Lattice="12.718 0.0 0.0 0.0 12.718 0.0 0.0 0.0 12.718" Properties=species:S:1:pos:R:3:Z:I:1:force:R:3
C 6.139767 6.651849 6.743812 6 -0.08847275 0.46320822 -0.75684435
H 5.915240 7.759156 6.532714 1 0.26076301 -1.56312025 0.49001353
H 6.080994 6.293789 7.814540 1 0.12168731 0.37083459 -1.21953886
C 6.443373 5.841538 5.696079 6 0.21039918 -1.14620632 1.86988599
H 6.713691 4.754564 5.783330 1 -0.36393271 0.80714854 0.56230581
H 6.515343 6.084370 4.666095 1 -0.14043890 1.07149258 -0.95357194
6
energy=-373.331611 Lattice="12.718 0.0 0.0 0.0 12.718 0.0 0.0 0.0 12.718" Properties=species:S:1:pos:R:3:Z:I:1:force:R:3
C 6.278174 6.835512 7.043561 6 0.79564027 0.05520214 -1.02398628
H 6.480836 6.829204 5.968257 1 -0.25044362 0.17109932 -0.06981836
H 6.379824 7.814312 7.513819 1 -0.33171574 -0.10167692 0.25038912
C 6.179614 5.668449 7.674550 6 0.13678999 0.05243717 0.01164556
H 6.105985 5.752855 8.765988 1 -0.10855874 -0.86157266 -0.12706041
H 6.247809 4.716279 7.083200 1 -0.24145196 0.69557183 0.95734015
6
energy=-373.274966 Lattice="12.718 0.0 0.0 0.0 12.718 0.0 0.0 0.0 12.718" Properties=species:S:1:pos:R:3:Z:I:1:force:R:3
C 5.856558 6.818341 9.973923 6 -0.46425980 -1.08836777 -1.84752766
H 5.855222 7.474593 10.790556 1 0.16515184 0.88830598 1.42477115
H 5.427635 5.807676 10.140667 1 0.43892516 0.48870330 -0.18037227
C 6.197748 7.288632 8.764326 6 -0.24770797 0.25869070 0.40483128
H 6.147340 6.832744 7.802418 1 -0.20511299 -1.37733375 -0.48506467
H 6.497368 8.300957 8.559971 1 0.31195525 0.82890780 0.68150480
6
energy=-373.388390 Lattice="12.718 0.0 0.0 0.0 12.718 0.0 0.0 0.0 12.718" Properties=species:S:1:pos:R:3:Z:I:1:force:R:3
C 5.907649 7.815845 9.976395 6 -0.33077934 1.58340062 0.64215661
H 5.850913 8.648513 9.256400 1 0.10313731 -0.25570411 0.22097568
H 5.784183 8.090182 11.043995 1 0.21879589 -0.06793631 -0.51786631
C 6.026737 6.558637 9.605153 6 -0.49420289 -0.64745977 -0.83599222
H 5.969020 5.800276 10.386793 1 0.21466310 -0.38560147 -0.36729109
H 6.000085 6.315439 8.517213 1 0.28901277 -0.23903306 0.85761521
6
energy=-373.286976 Lattice="12.718 0.0 0.0 0.0 12.718 0.0 0.0 0.0 12.718" Properties=species:S:1:pos:R:3:Z:I:1:force:R:3
C 6.186473 5.885907 8.352121 6 0.12409181 -3.73443951 0.94553415
H 6.173227 5.212463 9.259197 1 -0.09773644 0.62976646 -0.73224453
H 6.303008 5.276791 7.427082 1 -0.10705258 0.87345116 0.27831337
C 6.092640 7.175893 8.493169 6 0.66782601 1.91957002 -0.90670532
H 6.242699 7.764676 7.555993 1 -0.41569266 0.20205697 0.93897475
H 6.070918 7.634062 9.494198 1 -0.17072137 0.11276764 -0.52769873
6
energy=-373.329461 Lattice="12.718 0.0 0.0 0.0 12.718 0.0 0.0 0.0 12.718" Properties=species:S:1:pos:R:3:Z:I:1:force:R:3
C 6.405896 6.525601 7.115846 6 -1.24275389 -1.78069744 2.43752324
H 6.308864 5.741825 6.396320 1 0.37263950 -0.17745870 -1.03847394
H 6.611984 7.523021 6.885533 1 0.46472466 1.53504224 -0.63060567
C 6.043537 6.138898 8.364198 6 0.39087635 0.77948550 -0.62876887
H 5.967070 6.793076 9.235883 1 0.17835447 0.19261433 -0.15276323
H 5.801800 5.110379 8.567830 1 -0.16281420 -0.55026378 0.02071385
6
energy=-373.323848 Lattice="12.718 0.0 0.0 0.0 12.718 0.0 0.0 0.0 12.718" Properties=species:S:1:pos:R:3:Z:I:1:force:R:3
C 6.109629 6.311222 6.808395 6 -0.53015054 0.69992317 -0.38871251
H 5.692460 7.326626 7.141596 1 0.74922205 -1.42189768 -0.43630623
H 6.110415 5.504111 7.544235 1 0.14697773 0.13009020 0.11252184
C 6.443749 6.084071 5.522293 6 -0.93281952 1.23387072 -0.72549693
H 6.707578 5.124888 5.046939 1 0.11252647 0.20969881 0.60891943
H 6.266268 6.916402 4.769118 1 0.45403760 -0.84703152 0.81691513
6
energy=-373.244279 Lattice="12.718 0.0 0.0 0.0 12.718 0.0 0.0 0.0 12.718" Properties=species:S:1:pos:R:3:Z:I:1:force:R:3
C 6.185134 5.677777 7.560740 6 0.11403879 -1.35883773 0.00789689
H 6.098273 5.630820 8.709541 1 0.05179697 0.06393155 -1.89600842
H 6.218244 4.735267 6.913090 1 -0.15184380 0.72909544 1.51590808
C 6.318031 6.773347 6.815482 6 0.30588076 0.87099884 -0.86472123
H 6.465944 6.682275 5.691899 1 -0.27307860 0.14123080 1.31969729
H 6.341589 7.805081 7.213754 1 -0.04549467 -0.44041280 -0.09314394
6
energy=-373.139301 Lattice="12.718 0.0 0.0 0.0 12.718 0.0 0.0 0.0 12.718" Properties=species:S:1:pos:R:3:Z:I:1:force:R:3
C 6.338445 6.667382 6.253215 6 0.25850712 2.27021835 -1.03567298
H 6.556873 6.754466 5.092510 1 -0.57541227 0.03514289 2.37869276
H 6.264853 7.644608 6.872780 1 0.08070339 -1.45821146 -1.18336599
C 6.239523 5.469424 6.818571 6 0.72279572 0.80370377 -0.50052010
H 6.211609 5.330986 7.884712 1 -0.33523661 -0.28161570 0.39634458
H 6.457474 4.691474 6.125238 1 -0.15079171 -1.36340093 -0.05396029
6
energy=-373.313192 Lattice="12.718 0.0 0.0 0.0 12.718 0.0 0.0 0.0 12.718" Properties=species:S:1:pos:R:3:Z:I:1:force:R:3
C 6.237127 6.980101 8.563219 6 -0.86998583 -2.27307125 2.17353041
H 6.217344 5.978648 8.140726 1 0.26619576 0.20849862 -0.91317525
H 6.581984 7.851168 8.105441 1 0.51820364 1.24536664 -1.15370006
C 5.855021 6.986415 9.850463 6 0.35675727 1.77278615 -0.36600554
H 5.855033 7.945047 10.389385 1 -0.03983567 -0.22841234 0.08600809
H 5.543747 6.136585 10.418863 1 -0.23086775 -0.73445054 0.16763296
6
energy=-373.271551 Lattice="12.718 0.0 0.0 0.0 12.718 0.0 0.0 0.0 12.718" Properties=species:S:1:pos:R:3:Z:I:1:force:R:3
C 6.233364 5.929436 8.177418 6 0.46766446 -0.97732689 0.00398058
H 6.268577 5.039417 8.864685 1 -0.12075555 0.44316851 -1.07057367
H 6.474979 5.865540 7.065333 1 -0.39419873 -0.33544538 1.48702892
C 6.036084 7.129107 8.717690 6 0.61435320 0.87662391 -0.72094298
H 6.183309 7.947836 7.976480 1 -0.46997125 0.07757692 0.95341818
H 5.917124 7.335956 9.798692 1 -0.09946474 -0.08599421 -0.64821825
6
energy=-373.211764 Lattice="12.718 0.0 0.0 0.0 12.718 0.0 0.0 0.0 12.718" Properties=species:S:1:pos:R:3:Z:I:1:force:R:3
C 6.177585 7.397827 8.598867 6 -0.87548748 -1.90690116 0.30051332
H 6.092759 7.616212 7.547103 1 0.06125915 -0.92606060 -0.83659643
H 6.226624 8.351381 9.054580 1 0.41756236 0.83799357 1.38041239
C 5.994868 6.220536 9.279464 6 0.23733407 2.65207681 0.22754845
H 6.005632 6.316493 10.392471 1 0.02182045 -0.40278262 -0.75057805
H 5.762718 5.257862 8.852348 1 0.13772947 -0.26460784 -0.32658330
6
energy=-373.222667 Lattice="12.718 0.0 0.0 0.0 12.718 0.0 0.0 0.0 12.718" Properties=species:S:1:pos:R:3:Z:I:1:force:R:3
C 6.345329 5.408626 5.923096 6 -0.22551265 0.21539124 -2.09972169
H 6.204190 4.687920 6.762074 1 0.28208364 0.28287966 -0.86677709
H 6.490529 5.088457 4.790706 1 -0.15055825 0.10556083 2.49901996
C 6.190978 6.725177 6.136043 6 -0.16660709 0.70686567 1.15107857
H 6.243339 7.566934 5.414484 1 0.09027921 -0.86287004 -0.05316994
H 5.983988 7.116490 7.166070 1 0.17215605 -0.44604661 -0.63029868
6
energy=-373.422581 Lattice="12.718 0.0 0.0 0.0 12.718 0.0 0.0 0.0 12.718" Properties=species:S:1:pos:R:3:Z:I:1:force:R:3
C 6.457051 6.156463 5.138626 6 0.09710087 -0.67145744 -0.30310654
H 6.730184 5.245263 4.575026 1 -0.01085778 0.43755373 0.10210835
H 6.439496 7.103339 4.573916 1 0.01656100 -0.31820972 0.28069370
C 6.129708 6.071288 6.433604 6 0.10493502 -0.23608555 -0.93274907
H 5.821906 6.983426 6.892382 1 -0.24917864 0.54820278 0.90102369
H 6.108410 5.124829 6.984068 1 0.04004188 0.24632883 -0.03962021
6
energy=-373.411057 Lattice="12.718 0.0 0.0 0.0 12.718 0.0 0.0 0.0 12.718" Properties=species:S:1:pos:R:3:Z:I:1:force:R:3
C 5.877315 7.818289 10.043916 6 0.46847127 -0.67032924 -0.98782265
H 5.904373 8.685787 9.379043 1 -0.13536611 -0.01645713 0.01231354
H 5.836007 8.046214 11.107670 1 -0.14611950 -0.21895222 0.07958033
C 6.024205 6.569402 9.545497 6 0.17042929 -0.07082777 0.35731109
H 6.074533 5.701090 10.225678 1 -0.11010911 0.30819836 -0.13271170
H 6.167758 6.278110 8.476501 1 -0.24783755 0.66220249 0.67200766
6
energy=-373.331082 Lattice="12.718 0.0 0.0 0.0 12.718 0.0 0.0 0.0 12.718" Properties=species:S:1:pos:R:3:Z:I:1:force:R:3
C 6.062085 7.795355 9.470316 6 -0.63975623 -3.08114641 1.30288123
H 5.972350 7.834128 8.430157 1 0.11467797 0.58355239 -1.76245597
H 6.191629 8.642382 10.081842 1 0.25380097 1.24744461 0.51131719
C 5.874203 6.580075 10.050282 6 0.17723398 1.42929630 0.71773013
H 5.866053 6.505344 11.148765 1 0.11777204 -0.01915782 -0.22737670
H 5.687999 5.642660 9.549551 1 -0.02365931 -0.15398554 -0.53476516
6
energy=-373.305860 Lattice="12.718 0.0 0.0 0.0 12.718 0.0 0.0 0.0 12.718" Properties=species:S:1:pos:R:3:Z:I:1:force:R:3
C 6.244894 7.038109 8.582276 6 -0.82253557 -1.35512300 0.81017935
H 6.209244 6.212148 7.868974 1 -0.04243300 -0.50105180 0.43414651
H 6.488309 7.899073 8.048191 1 0.65877109 2.01840844 -0.32733715
C 5.866404 6.937597 9.870672 6 -0.02338677 0.62769620 -0.98775581
H 5.771124 7.763730 10.585486 1 0.29582877 0.04891682 -0.33290513
H 5.482219 6.005449 10.223186 1 -0.06537343 -0.83452258 0.39279285
6
energy=-373.300235 Lattice="12.718 0.0 0.0 0.0 12.718 0.0 0.0 0.0 12.718" Properties=species:S:1:pos:R:3:Z:I:1:force:R:3
C 6.463093 6.141149 5.622156 6 -0.20920979 0.53935612 0.05301619
H 6.851070 5.130662 5.336640 1 -0.29542511 1.05599602 -0.30331840
H 6.310081 7.047216 4.947522 1 0.42251997 -1.64330479 0.18616651
C 6.134396 6.380258 6.898539 6 0.58502409 -0.67566942 0.48975642
H 5.808751 7.375946 7.166479 1 -0.24705491 0.23487198 0.30531460
H 6.286432 5.651423 7.735397 1 -0.25711564 0.48335694 -0.74173037
6
energy=-373.290388 Lattice="12.718 0.0 0.0 0.0 12.718 0.0 0.0 0.0 12.718" Properties=species:S:1:pos:R:3:Z:I:1:force:R:3
C 6.212958 6.659488 8.604803 6 0.55813342 0.56825483 0.61190808
H 6.282878 5.530227 8.461275 1 -0.35643177 1.46208251 0.42945064
H 6.630166 7.260720 7.761295 1 -0.51211167 -0.41739010 0.41395099
C 5.868809 7.288405 9.771148 6 0.21298571 -1.78386247 -0.10791802
H 5.884365 8.356898 10.024535 1 0.09874380 -0.13748521 -0.70264340
H 5.600805 6.666162 10.660014 1 -0.00375433 0.31066816 -0.65200857
6
energy=-373.337915 Lattice="12.718 0.0 0.0 0.0 12.718 0.0 0.0 0.0 12.718" Properties=species:S:1:pos:R:3:Z:I:1:force:R:3
C 6.161567 5.855484 7.444310 6 -0.21780036 -0.60091660 -1.15128168
H 6.037256 6.331138 8.404116 1 0.12196139 0.60690162 0.17863832
H 5.959190 4.785882 7.489935 1 0.12053803 -0.20976309 -0.15414134
C 6.423166 6.472631 6.276848 6 0.43270772 2.21829283 0.97807097
H 6.556402 6.035282 5.281153 1 -0.17969761 -0.27400266 0.37067261
H 6.597177 7.618813 6.317130 1 -0.27411836 -1.74748802 -0.21608389
6