6
energy=-373.355695 Lattice="12.718 0.0 0.0 0.0 12.718 0.0 0.0 0.0 12.718" Properties=species:S:1:pos:R:3:Z:I:1:force:R:3
C 6.116666 6.550224 9.110067 6 0.14697105 -2.93606564 -0.19549705
H 6.082270 5.579960 9.659377 1 0.08724325 0.41387334 -0.59575640
H 6.300353 6.509488 8.037664 1 0.07310834 0.03508221 -0.02795974
C 5.900558 7.643947 9.777250 6 -0.09123103 1.43903050 0.21058173
H 5.954724 8.555671 9.189989 1 -0.19085827 0.60872454 0.51852400
H 5.698425 7.605298 10.843691 1 -0.02505490 0.42700089 0.08317370
6
energy=-373.338077 Lattice="12.718 0.0 0.0 0.0 12.718 0.0 0.0 0.0 12.718" Properties=species:S:1:pos:R:3:Z:I:1:force:R:3
C 6.482069 5.946738 6.354258 6 -0.64544300 0.27526662 0.27033575
H 6.333038 4.849258 6.254744 1 0.54614333 0.69429554 -0.70971240
H 6.749098 6.680717 5.543135 1 -0.05729193 -1.20383404 0.51860833
C 6.105248 6.428784 7.546795 6 -0.15259662 -0.06403954 0.10270125
H 6.086720 7.493995 7.765257 1 0.11603397 0.15291081 0.05550501
H 5.739720 5.771558 8.351536 1 0.19229757 0.14974630 -0.23539598
6
energy=-373.284824 Lattice="12.718 0.0 0.0 0.0 12.718 0.0 0.0 0.0 12.718" Properties=species:S:1:pos:R:3:Z:I:1:force:R:3
C 6.378048 5.663479 5.744614 6 0.42697055 -1.07054796 1.37250264
H 6.587395 4.689526 6.314733 1 -0.39335233 1.04358375 -1.33201185
H 6.484727 5.763759 4.658860 1 -0.04176092 -0.36190977 0.21365060
C 6.117529 6.725261 6.504361 6 0.45236433 0.09918912 0.21027628
H 6.067382 7.716592 6.130077 1 -0.34571181 0.99125354 -0.92630280
H 6.101020 6.773551 7.583438 1 -0.10049267 -0.70169621 0.47372558
6
energy=-373.156344 Lattice="12.718 0.0 0.0 0.0 12.718 0.0 0.0 0.0 12.718" Properties=species:S:1:pos:R:3:Z:I:1:force:R:3
C 6.178576 6.652484 6.841808 6 0.32281560 0.41164574 -0.73404688
H 6.223460 7.585150 6.350060 1 0.21433400 1.04390977 -0.93117504
H 5.920093 6.733499 7.819424 1 -0.87695815 0.15215337 3.23880503
C 6.439371 5.499718 6.286450 6 -0.22157526 -0.50496708 -1.62229475
H 6.261333 4.568060 6.836078 1 0.40463691 -0.01645867 -0.47239992
H 6.637245 5.605937 5.198367 1 0.15805868 -1.08105504 0.52090639
6
energy=-373.140496 Lattice="12.718 0.0 0.0 0.0 12.718 0.0 0.0 0.0 12.718" Properties=species:S:1:pos:R:3:Z:I:1:force:R:3
C 6.251595 5.420355 6.461810 6 -1.05054116 1.43584901 1.31575733
H 5.952498 5.188061 7.531498 1 0.52612830 0.92333728 -0.76393186
H 6.243812 4.439426 5.996500 1 0.52397114 0.28363813 -1.12662530
C 6.309248 6.709169 5.975318 6 -0.26001328 -1.95577787 -0.95078640
H 6.443513 6.918832 4.854609 1 -0.00966581 -0.32970976 1.59542773
H 6.092472 7.583603 6.607555 1 0.27179511 -0.35782171 -0.07643998
6
energy=-373.367049 Lattice="12.718 0.0 0.0 0.0 12.718 0.0 0.0 0.0 12.718" Properties=species:S:1:pos:R:3:Z:I:1:force:R:3
C 6.455647 6.468829 5.715702 6 -0.23661622 0.25886451 -1.01073480
H 6.782254 5.704183 5.022458 1 0.27334960 -0.14729655 -0.14583616
H 6.229660 7.426271 5.294590 1 0.06888350 0.79040293 -0.31259237
C 6.178737 6.175617 6.960088 6 -0.07712184 -2.08281719 1.33432482
H 5.744952 6.782448 7.736861 1 -0.07062208 0.68537123 0.04626292
H 6.323503 5.118372 7.267119 1 0.04403274 0.49706196 0.08019122
6
energy=-373.383492 Lattice="12.718 0.0 0.0 0.0 12.718 0.0 0.0 0.0 12.718" Properties=species:S:1:pos:R:3:Z:I:1:force:R:3
C 6.023220 6.251817 8.604752 6 -0.19410763 0.00842808 -0.07591856
H 5.987826 7.088697 9.317002 1 0.07576841 -0.07455022 -0.18011516
H 5.697543 5.289435 9.082956 1 0.38071226 0.59195116 -0.87115208
C 6.382386 6.479969 7.315764 6 -0.34308259 -1.11428554 1.67756014
H 6.438307 5.643501 6.609440 1 0.00421404 0.37374354 -0.10549655
H 6.685788 7.481764 7.051408 1 0.07600958 0.21700229 -0.45124281
6
energy=-373.242243 Lattice="12.718 0.0 0.0 0.0 12.718 0.0 0.0 0.0 12.718" Properties=species:S:1:pos:R:3:Z:I:1:force:R:3
C 6.102219 6.684165 6.454692 6 0.38293267 -1.68845288 -1.53048316
H 5.887272 7.702766 6.295881 1 -0.07663898 1.36472402 -1.18481969
H 6.002648 6.516529 7.488289 1 0.01786404 -0.88945115 1.50196961
C 6.395686 5.686298 5.576923 6 -0.33171574 0.43832095 2.58127578
H 6.546625 4.674106 5.975790 1 -0.01223537 0.18008071 0.03291889
H 6.520200 5.734318 4.532929 1 0.01953628 0.60081427 -1.40079971
6
energy=-373.079217 Lattice="12.718 0.0 0.0 0.0 12.718 0.0 0.0 0.0 12.718" Properties=species:S:1:pos:R:3:Z:I:1:force:R:3
C 6.451039 6.147762 5.657609 6 -0.05059883 2.67153750 -1.83431167
H 6.623078 5.573552 4.697691 1 -0.21130524 -0.53303840 1.73648729
H 6.489451 7.249490 5.270582 1 0.08370438 -1.46638757 1.07749251
C 6.119285 5.927697 6.940039 6 -0.60699624 -1.09308061 -0.42218264
H 5.874268 6.761739 7.627840 1 0.33242896 -0.41792900 -0.38889300
H 5.892261 4.891763 7.309798 1 0.44957108 0.84255985 -0.15586296
6
energy=-373.243318 Lattice="12.718 0.0 0.0 0.0 12.718 0.0 0.0 0.0 12.718" Properties=species:S:1:pos:R:3:Z:I:1:force:R:3
C 6.317842 6.685350 5.649451 6 0.27865636 1.89444364 1.15732789
H 6.729945 6.490673 4.625581 1 -0.58670456 0.16493999 0.83025866
H 6.204623 7.811490 5.996791 1 0.08043651 -2.15793923 -0.99061539
C 6.160985 5.714192 6.570683 6 0.45375992 0.05959204 0.01091383
H 5.919776 5.851992 7.661780 1 0.02747894 0.12081931 -1.19177556
H 6.422943 4.695760 6.264926 1 -0.25341017 -0.08190769 0.18740939
6
energy=-373.313357 Lattice="12.718 0.0 0.0 0.0 12.718 0.0 0.0 0.0 12.718" Properties=species:S:1:pos:R:3:Z:I:1:force:R:3
C 6.257243 6.930316 8.264556 6 0.42269429 1.16984506 0.79398345
H 6.244724 6.072176 7.597560 1 0.19830162 0.47308023 -0.67071902
H 6.613063 7.973563 8.071436 1 -0.25408328 -1.00646008 -0.67457773
C 5.905161 6.668349 9.519012 6 -0.21375139 -0.53460781 0.36827531
H 5.883028 7.353243 10.366967 1 0.07469986 0.22068360 -0.20088146
H 5.621505 5.646575 9.734704 1 -0.22671798 -0.31489094 0.37708906
6
energy=-373.324264 Lattice="12.718 0.0 0.0 0.0 12.718 0.0 0.0 0.0 12.718" Properties=species:S:1:pos:R:3:Z:I:1:force:R:3
C 6.479793 5.884956 5.856498 6 -0.08967963 0.49915021 0.51408319
H 6.587238 4.886695 5.403664 1 -0.25260952 -0.12564013 0.92338254
H 6.709844 6.598198 5.071112 1 0.05799847 0.67851615 0.14100968
C 6.128424 6.237393 7.126381 6 -0.20779979 -0.91992029 -1.50685368
H 5.974611 7.275580 7.464301 1 0.26920241 -0.37295266 -0.25061486
H 5.813307 5.433488 7.802098 1 0.22135414 0.24002088 0.17577205
6
energy=-373.369892 Lattice="12.718 0.0 0.0 0.0 12.718 0.0 0.0 0.0 12.718" Properties=species:S:1:pos:R:3:Z:I:1:force:R:3
C 6.031716 6.007628 8.805239 6 0.26040717 0.27038769 0.30509040
H 6.045264 6.265354 9.853986 1 -0.16689865 -0.15207366 0.48923963
H 5.920483 4.963062 8.546150 1 -0.15100511 -0.19997386 -0.19984171
C 6.259190 6.982663 7.940327 6 0.60806942 1.36111213 -0.71545265
H 6.366598 6.891972 6.867573 1 -0.22007836 -0.66924012 -0.41730217
H 6.477052 8.043734 8.187479 1 -0.33217237 -0.60825968 0.54998404
6
energy=-373.307212 Lattice="12.718 0.0 0.0 0.0 12.718 0.0 0.0 0.0 12.718" Properties=species:S:1:pos:R:3:Z:I:1:force:R:3
C 6.091103 6.694248 6.516931 6 0.20522612 1.24376279 1.23623151
H 5.970409 7.741235 6.096860 1 -0.04657197 -1.16758455 0.75244416
H 6.119741 6.524150 7.629558 1 -0.32260374 0.44264864 -0.97722302
C 6.380000 5.700998 5.703018 6 0.72194777 -0.27087722 -2.71298577
H 6.640804 4.669976 5.933765 1 -0.20042998 -0.01478231 0.52512711
H 6.504362 5.915546 4.591687 1 -0.35580905 -0.23720758 1.17696239
6
energy=-373.275243 Lattice="12.718 0.0 0.0 0.0 12.718 0.0 0.0 0.0 12.718" Properties=species:S:1:pos:R:3:Z:I:1:force:R:3
C 6.390401 6.654410 6.307805 6 -0.15171062 -1.32642073 0.14553997
H 6.562282 6.534664 5.228261 1 -0.11429127 -0.34892363 0.19846257
H 6.405236 7.725379 6.577399 1 -0.13416437 -0.55762639 0.44121293
C 6.193105 5.610148 7.181805 6 0.91293408 2.15027322 -1.94271563
H 6.146204 5.909738 8.187873 1 -0.37683503 0.10539628 1.65173699
H 6.265152 4.543965 6.996371 1 -0.13619297 -0.02862823 -0.48958673
6
energy=-373.173529 Lattice="12.718 0.0 0.0 0.0 12.718 0.0 0.0 0.0 12.718" Properties=species:S:1:pos:R:3:Z:I:1:force:R:3
C 5.858116 6.860294 9.687990 6 1.00054500 1.37481201 -0.24274934
H 5.976207 7.660112 10.384353 1 -0.07928105 1.12725214 0.39256711
H 5.589465 5.979387 10.220911 1 -0.49803898 -1.15949945 -0.17092140
C 6.253495 6.936655 8.407995 6 -0.25765403 -1.25778148 0.87146987
H 6.172095 5.925669 8.003057 1 0.26934536 0.33777018 -1.20160078
H 6.705883 7.788910 7.870968 1 -0.43364257 -0.41373039 0.33553846
6
energy=-373.230448 Lattice="12.718 0.0 0.0 0.0 12.718 0.0 0.0 0.0 12.718" Properties=species:S:1:pos:R:3:Z:I:1:force:R:3
C 6.451713 6.336207 6.091955 6 0.12101368 0.47735701 0.53675468
H 6.649341 5.627551 5.212415 1 -0.41834295 1.25821137 1.22312607
H 6.575976 7.454034 6.076665 1 0.05297402 -0.99266199 -1.02170930
C 6.130148 5.932558 7.336312 6 0.77341461 -0.70201040 0.04687330
H 6.116551 6.595101 8.222538 1 -0.26490918 0.01501422 -0.64980514
H 6.091146 4.872687 7.605378 1 -0.26598338 -0.04831826 -0.12857633
6
energy=-373.287493 Lattice="12.718 0.0 0.0 0.0 12.718 0.0 0.0 0.0 12.718" Properties=species:S:1:pos:R:3:Z:I:1:force:R:3
C 6.078070 7.663803 9.143112 6 -0.38066444 1.10772665 0.15921876
H 5.968778 7.958170 8.104902 1 0.26551441 0.80345797 0.01785272
H 6.080055 8.310779 10.033730 1 0.13547152 0.45948217 -0.78470330
C 6.010660 6.389219 9.395584 6 -0.25844130 -2.25519950 -0.29373229
H 5.971647 6.014266 10.386923 1 0.15770078 -0.33291953 1.18776978
H 5.914395 5.594743 8.652233 1 0.08168298 0.20465379 -0.27723711
6
energy=-373.279426 Lattice="12.718 0.0 0.0 0.0 12.718 0.0 0.0 0.0 12.718" Properties=species:S:1:pos:R:3:Z:I:1:force:R:3
C 5.829616 6.915626 9.979635 6 0.09503421 -0.18920762 -0.06540685
H 5.885505 7.711909 10.710283 1 0.00897470 0.22231111 0.41984859
H 5.435337 5.942630 10.409885 1 0.53478675 0.93138227 -0.96426105
C 6.230789 7.196708 8.714072 6 -1.36292476 -1.07991038 2.30644214
H 6.064601 6.404778 8.021660 1 0.33999367 -0.30755867 -1.19038408
H 6.498474 8.203781 8.471098 1 0.38432106 0.42788844 -0.49403783
6
energy=-373.384235 Lattice="12.718 0.0 0.0 0.0 12.718 0.0 0.0 0.0 12.718" Properties=species:S:1:pos:R:3:Z:I:1:force:R:3
C 6.121041 6.834558 7.742257 6 -0.34988060 -0.71416864 -0.03066814
H 6.135462 7.794125 7.278557 1 0.35928467 0.71542025 -0.73564302
H 5.748144 6.902705 8.740488 1 -0.12180661 -0.32737983 0.97322186
C 6.365569 5.688878 7.097838 6 -0.32809460 0.23781436 0.48513615
H 6.232624 4.690179 7.553520 1 0.19336664 0.49414838 -0.21381258
H 6.639138 5.776234 6.058917 1 0.24571588 -0.40547611 -0.47562203
6
energy=-373.317508 Lattice="12.718 0.0 0.0 0.0 12.718 0.0 0.0 0.0 12.718" Properties=species:S:1:pos:R:3:Z:I:1:force:R:3
C 6.332524 5.392952 6.439582 6 0.63303845 -0.13534348 -1.92891033
H 6.194682 4.861692 7.319012 1 -0.27269037 -1.32316365 1.58767431
H 6.610551 4.916449 5.517795 1 0.03991795 -0.80454555 -0.32964446
C 6.254984 6.693278 6.429980 6 -0.55337841 2.28985902 1.11859008
H 6.386011 7.352473 5.565727 1 0.05587577 -0.24575650 0.06970574
H 5.999579 7.172550 7.394502 1 0.10109071 0.22885303 -0.51032732
6
energy=-373.273559 Lattice="12.718 0.0 0.0 0.0 12.718 0.0 0.0 0.0 12.718" Properties=species:S:1:pos:R:3:Z:I:1:force:R:3
C 6.153030 7.443885 8.945881 6 -0.56915420 -1.67762699 1.23540155
H 6.185636 6.942237 8.003352 1 -0.01957742 0.01026694 -0.77505189
H 6.439192 8.415458 9.124151 1 0.74552840 2.57507839 -0.49776130
C 5.826906 6.788105 10.058432 6 0.38586321 -0.85474535 0.14947839
H 5.917707 7.197198 11.069099 1 -0.20903341 0.22724300 -0.20750823
H 5.635141 5.721476 10.011803 1 -0.33217237 -0.27663084 0.10129639
6
energy=-373.328536 Lattice="12.718 0.0 0.0 0.0 12.718 0.0 0.0 0.0 12.718" Properties=species:S:1:pos:R:3:Z:I:1:force:R:3
C 6.397977 6.416791 7.113243 6 -0.09604980 -1.49278253 -1.08033667
H 6.414911 5.647001 6.335610 1 -0.02222823 -0.33116861 0.28526153
H 6.646304 7.352653 6.697801 1 0.40805956 1.47391268 -0.14076234
C 6.049161 6.221954 8.372608 6 -0.37849237 0.62682614 -0.11992354
H 5.999720 7.149576 8.939839 1 -0.07349452 -0.32916520 0.78459892
H 5.680096 5.266198 8.738189 1 0.16117280 0.05416238 0.28064177
6
energy=-373.325360 Lattice="12.718 0.0 0.0 0.0 12.718 0.0 0.0 0.0 12.718" Properties=species:S:1:pos:R:3:Z:I:1:force:R:3
C 6.476641 6.267707 5.676151 6 -0.87800562 0.69481593 2.39725151
H 6.856547 5.417071 5.160136 1 0.37271047 -1.14289165 0.13132124
H 6.347570 7.074663 4.980186 1 -0.21690202 0.84915319 -0.10830471
C 6.143405 6.363004 7.015625 6 1.05061264 -1.08483559 -2.73837235
H 5.760553 7.294225 7.405802 1 -0.13981566 0.15062356 0.32089859
H 6.301971 5.476190 7.652838 1 -0.19093129 0.53480167 0.00522860
6
energy=-373.348397 Lattice="12.718 0.0 0.0 0.0 12.718 0.0 0.0 0.0 12.718" Properties=species:S:1:pos:R:3:Z:I:1:force:R:3
C 6.243219 7.011922 7.870813 6 0.14492908 0.97837744 0.97169720
H 6.283376 7.020957 6.787162 1 -0.01872587 0.28174169 -0.15351348
H 6.366265 7.951224 8.469128 1 -0.14903924 -0.52007335 -0.82795495
C 6.090085 5.873803 8.529608 6 0.35683184 -0.96380699 -1.57976559
H 6.127248 5.729353 9.561663 1 -0.09646169 0.31254352 1.96083317
H 6.071106 4.916990 8.011884 1 -0.23649435 -0.08873860 -0.36283691
6
energy=-373.210344 Lattice="12.718 0.0 0.0 0.0 12.718 0.0 0.0 0.0 12.718" Properties=species:S:1:pos:R:3:Z:I:1:force:R:3
C 6.092370 6.665452 7.566689 6 0.75742028 1.25803705 -0.73613616
H 6.201087 7.819664 7.420541 1 -0.27401294 -2.06577180 0.34264499
H 5.798483 6.269938 8.564595 1 0.00543223 0.50357097 -0.63254120
C 6.436008 5.776632 6.610576 6 -0.12651482 -0.91993263 -0.16171016
H 6.306621 4.702337 6.841633 1 0.04524733 0.32074072 0.15956998
H 6.822378 5.843853 5.556446 1 -0.40451863 0.90015672 1.02488051
6
energy=-373.371920 Lattice="12.718 0.0 0.0 0.0 12.718 0.0 0.0 0.0 12.718" Properties=species:S:1:pos:R:3:Z:I:1:force:R:3
C 6.160672 7.010943 9.099194 6 -0.09168818 1.18619060 -0.26659531
H 6.091076 5.991793 8.711527 1 0.22034010 0.02024282 0.14454855
H 6.435495 7.806157 8.355432 1 -0.10243334 -0.70383434 0.61841606
C 5.805694 7.331950 10.357727 6 -0.81447156 -1.15007686 -0.53652174
H 5.667199 8.364038 10.694767 1 0.34550355 -0.19278145 0.10312445
H 5.404868 6.493617 10.981698 1 0.44311761 0.84358932 -0.07142221
6
energy=-373.268500 Lattice="12.718 0.0 0.0 0.0 12.718 0.0 0.0 0.0 12.718" Properties=species:S:1:pos:R:3:Z:I:1:force:R:3
C 6.174085 6.455755 8.761583 6 0.55715588 -0.76307825 -0.13605671
H 6.199942 5.454006 9.203345 1 -0.18468504 -0.12586433 -0.29334560
H 6.521204 6.503685 7.694922 1 -0.50489149 0.29950288 0.92018562
C 5.903968 7.479408 9.581920 6 0.54053112 -1.55049921 -0.21490015
H 6.060049 8.433234 9.139745 1 -0.32018228 1.35809057 0.35300963
H 5.720059 7.230862 10.648744 1 -0.08525990 0.76927256 -0.63469938
6
energy=-373.177102 Lattice="12.718 0.0 0.0 0.0 12.718 0.0 0.0 0.0 12.718" Properties=species:S:1:pos:R:3:Z:I:1:force:R:3
C 6.136829 6.506995 6.332221 6 -0.69192087 1.11464755 0.54077229
H 5.942339 7.618999 6.148232 1 0.36038973 -1.39757040 0.45444178
H 5.940268 6.107336 7.390536 1 0.45033573 0.57076114 -1.54416247
C 6.452746 5.715712 5.307615 6 -0.32570912 -0.69261404 -1.61160924
H 6.511819 4.638655 5.371360 1 0.19662166 -0.52249173 0.79713254
H 6.524332 5.902097 4.190197 1 0.00940202 0.92818485 1.37107054
6
energy=-373.353815 Lattice="12.718 0.0 0.0 0.0 12.718 0.0 0.0 0.0 12.718" Properties=species:S:1:pos:R:3:Z:I:1:force:R:3
C 6.447530 6.247726 5.137546 6 -0.29812477 -0.37269195 1.58776892
H 6.788815 5.512205 4.433825 1 0.05481904 -0.87673292 -0.11506878
H 6.458046 7.212638 4.671604 1 -0.24537135 0.93558963 0.17018401
C 6.117291 5.981087 6.434859 6 1.16239503 -0.71321733 -2.61814079
H 5.883180 6.747978 7.116500 1 -0.50442458 0.98448176 0.89601878
H 6.220321 4.959960 6.806378 1 -0.17013825 0.04945880 0.08685398
6
energy=-373.192730 Lattice="12.718 0.0 0.0 0.0 12.718 0.0 0.0 0.0 12.718" Properties=species:S:1:pos:R:3:Z:I:1:force:R:3
C 6.431989 6.223022 5.393833 6 -1.26605941 0.57217782 1.71202580
H 6.725758 5.337211 4.854902 1 0.32998281 -0.37156324 -0.03822410
H 6.231452 7.101276 4.796716 1 0.22776854 0.42025997 -0.18627347
C 6.077183 6.174581 6.705371 6 0.38475506 -0.36539104 -1.49069737
H 5.650995 6.849162 7.421304 1 -0.17932943 1.48934651 -0.41815320
H 6.134343 5.266408 7.233486 1 0.50554712 -1.74222240 0.42195638
6
energy=-373.321554 Lattice="12.718 0.0 0.0 0.0 12.718 0.0 0.0 0.0 12.718" Properties=species:S:1:pos:R:3:Z:I:1:force:R:3
C 6.280450 6.858026 6.894804 6 -0.49289008 -1.50471503 1.49837366
H 6.309730 7.267411 5.931955 1 0.24076856 0.60037976 -1.53950517
H 6.068246 7.511191 7.725841 1 0.18811284 0.61780979 0.20046032
C 6.288371 5.539306 7.171639 6 -0.25585169 1.98954779 0.17406741
H 6.131047 5.298933 8.213303 1 0.08906771 -0.70843662 0.18312284
H 6.338455 4.819654 6.394660 1 0.23040752 -0.99503255 -0.52094187
6
energy=-373.326145 Lattice="12.718 0.0 0.0 0.0 12.718 0.0 0.0 0.0 12.718" Properties=species:S:1:pos:R:3:Z:I:1:force:R:3
C 6.164007 6.783474 6.055724 6 0.49249053 0.42818617 -0.70612159
H 6.262880 7.727834 5.456108 1 -0.17378150 -1.23986088 -0.17132095
H 6.023049 7.038249 7.077234 1 -0.36295826 0.06137845 1.18638601
C 6.345228 5.498503 5.712066 6 0.61491987 0.58200510 -0.07255864
H 6.400134 4.710690 6.473610 1 -0.32724356 0.16542078 -0.10565185
H 6.650222 5.197083 4.709540 1 -0.24162525 0.00812418 -0.13824420
6
energy=-373.172560 Lattice="12.718 0.0 0.0 0.0 12.718 0.0 0.0 0.0 12.718" Properties=species:S:1:pos:R:3:Z:I:1:force:R:3
C 6.296797 6.733326 6.381562 6 0.67937747 0.60294418 -1.98195069
H 6.510787 7.057910 5.267039 1 -0.53400205 -0.75518445 1.97152074
H 6.203816 7.673338 7.027377 1 -0.01192221 -1.74689050 -0.32323521
C 6.294238 5.412305 6.697464 6 -0.03981202 1.51803953 0.89254625
H 6.191073 5.064047 7.724914 1 -0.18138272 0.26954231 0.28031061
H 6.434806 4.566642 6.043612 1 0.08440629 0.11510374 -0.84185691
6
energy=-373.194290 Lattice="12.718 0.0 0.0 0.0 12.718 0.0 0.0 0.0 12.718" Properties=species:S:1:pos:R:3:Z:I:1:force:R:3
C 6.267286 6.777513 5.700045 6 0.00340620 1.80869421 -0.68396895
H 6.487087 6.956939 4.590490 1 -0.39508576 0.52127920 1.68495309
H 6.062206 7.525188 6.534699 1 0.31343261 -0.22154903 -1.71055924
C 6.251009 5.536959 6.101054 6 0.33000493 -2.86579837 1.63497853
H 6.099194 5.282999 7.192868 1 0.01684434 0.21120496 -1.10308015
H 6.494365 4.657738 5.467399 1 -0.26579261 0.54217971 0.17229335
6
energy=-373.342110 Lattice="12.718 0.0 0.0 0.0 12.718 0.0 0.0 0.0 12.718" Properties=species:S:1:pos:R:3:Z:I:1:force:R:3
C 6.206266 6.811965 5.974915 6 -0.44532207 0.44999583 -0.97889835
H 6.207192 7.616932 5.135606 1 0.21124970 -1.55489735 1.33123024
H 5.932817 7.159222 6.975107 1 0.16773529 0.28198851 -0.08051261
C 6.339419 5.481542 5.810465 6 -0.12533623 0.16826494 -0.02516752
H 6.214330 4.792843 6.676068 1 0.16897353 0.44557558 -0.52428430
H 6.525724 5.003402 4.835894 1 0.02266429 0.20893982 0.27755284
6
energy=-373.302025 Lattice="12.718 0.0 0.0 0.0 12.718 0.0 0.0 0.0 12.718" Properties=species:S:1:pos:R:3:Z:I:1:force:R:3
C 6.098480 5.790785 6.792085 6 0.43498057 0.70613496 0.98836362
H 5.929596 6.514459 7.636777 1 -0.06255807 -0.55121972 -0.71146332
H 6.126435 4.735206 7.185581 1 -0.09142078 0.80395214 -1.11027770
C 6.413092 6.322783 5.591531 6 0.07132862 -0.43294117 0.50500462
H 6.701554 5.774378 4.700066 1 -0.08392498 -0.52266348 -0.01619745
H 6.478360 7.401988 5.422437 1 -0.26663799 -0.00739553 0.34252312
6
energy=-373.338394 Lattice="12.718 0.0 0.0 0.0 12.718 0.0 0.0 0.0 12.718" Properties=species:S:1:pos:R:3:Z:I:1:force:R:3
C 6.231838 5.698291 6.601187 6 0.22085741 -0.53689043 0.75050709
H 5.931587 5.827657 7.702083 1 0.33489414 -0.25955254 -1.62717985
H 6.540946 4.667242 6.269679 1 -0.48318211 0.88854766 0.35917000
C 6.328845 6.752610 5.776834 6 -0.04002182 0.84672864 1.73863622
H 6.719791 6.706793 4.774729 1 -0.01369730 -0.10772930 -0.47660933
H 6.152703 7.770264 6.228495 1 -0.01795094 -0.83227080 -0.74467891
6
energy=-373.325914 Lattice="12.718 0.0 0.0 0.0 12.718 0.0 0.0 0.0 12.718" Properties=species:S:1:pos:R:3:Z:I:1:force:R:3
C 6.412224 6.606978 5.754631 6 0.98876522 -0.21998889 -1.82495387
H 6.827242 6.166528 4.809000 1 -0.38279074 -0.37661083 0.96391498
H 6.314234 7.676055 5.555461 1 -0.39669013 0.14552917 0.65306993
C 6.199324 6.000767 6.916819 6 -0.14388366 0.21226272 0.67347576
H 5.847440 6.635014 7.734995 1 -0.05983013 -0.12822306 0.13443742
H 6.355979 4.944857 7.200711 1 -0.00405463 0.37434363 -0.59234917
6
energy=-373.302659 Lattice="12.718 0.0 0.0 0.0 12.718 0.0 0.0 0.0 12.718" Properties=species:S:1:pos:R:3:Z:I:1:force:R:3
C 6.379078 6.580155 5.323099 6 0.32639407 1.05649327 -0.81162534
H 6.744384 6.479616 4.249841 1 -0.47539320 -0.62930572 1.29416519
H 6.240450 7.686062 5.512352 1 -0.07728742 -1.15755004 0.29814688
C 6.186939 5.624097 6.255425 6 0.24818054 1.09965235 0.27623798
H 5.908557 5.946108 7.303139 1 0.15167206 -0.54896691 -1.09979016
H 6.400526 4.565656 6.067240 1 -0.17422013 0.17715993 0.05248962
6
energy=-373.175456 Lattice="12.718 0.0 0.0 0.0 12.718 0.0 0.0 0.0 12.718" Properties=species:S:1:pos:R:3:Z:I:1:force:R:3
C 6.209605 6.974445 6.384631 6 0.61208805 -2.88189966 1.98395049
H 6.251836 7.592966 5.569176 1 -0.13416797 1.50008344 -2.26964860
H 6.212011 7.464406 7.339258 1 -0.29293371 0.18928115 0.66843074
C 6.382369 5.640817 6.261569 6 0.48493869 -0.14897805 -0.57721924
H 6.530597 4.807211 6.965419 1 -0.38916862 0.92961952 0.76541076
H 6.555680 5.176955 5.290783 1 -0.28204662 0.40655804 -0.57340938
6
energy=-373.251217 Lattice="12.718 0.0 0.0 0.0 12.718 0.0 0.0 0.0 12.718" Properties=species:S:1:pos:R:3:Z:I:1:force:R:3
C 6.143651 6.500860 7.052303 6 -0.18933771 0.41762818 0.14783082
H 6.207867 7.532239 6.893412 1 -0.10862199 1.84378105 -0.03082755
H 5.859146 6.147804 8.009797 1 -0.35714243 -0.27028073 1.05007836
C 6.441356 5.674380 6.087141 6 1.34732124 -1.10090448 -0.97742254
H 6.502061 4.640236 6.425505 1 -0.10160698 -0.42691399 -0.84660368
H 6.875908 6.006507 5.111637 1 -0.59083479 -0.45251139 0.66066137
6
energy=-373.418797 Lattice="12.718 0.0 0.0 0.0 12.718 0.0 0.0 0.0 12.718" Properties=species:S:1:pos:R:3:Z:I:1:force:R:3
C 6.292463 6.831917 6.830192 6 -0.19251200 0.09724536 0.33189006
H 6.376058 7.089748 5.804303 1 0.14783905 0.24440050 -1.14016988
H 6.201681 7.683933 7.503742 1 0.00116317 -0.12572138 0.20817826
C 6.254974 5.566368 7.227703 6 0.12012922 0.59829819 1.12953476
H 6.178407 5.359795 8.289312 1 -0.09726027 -0.18647710 0.29030964
H 6.365263 4.710859 6.606384 1 0.02135560 -0.61863460 -0.82353419
6
energy=-373.229779 Lattice="12.718 0.0 0.0 0.0 12.718 0.0 0.0 0.0 12.718" Properties=species:S:1:pos:R:3:Z:I:1:force:R:3
C 5.847485 7.237691 9.925290 6 -1.42599294 1.19375017 3.47558683
H 5.827068 8.362118 10.131059 1 0.11415603 -1.49181940 0.14973036
H 5.435292 6.538702 10.761775 1 0.80423136 1.19866715 -1.45990119
C 6.227093 6.848137 8.745552 6 -0.27568468 -1.06971492 -2.08915651
H 6.073662 5.800504 8.412995 1 0.51989131 0.52555032 0.06406628
H 6.467465 7.619934 8.008295 1 0.26295256 -0.35636904 -0.14756394
6
energy=-373.329982 Lattice="12.718 0.0 0.0 0.0 12.718 0.0 0.0 0.0 12.718" Properties=species:S:1:pos:R:3:Z:I:1:force:R:3
C 6.398688 6.443979 5.317122 6 -0.68899186 0.64243635 2.28914117
H 6.674590 6.130245 4.333923 1 0.23715050 -0.95654876 -0.49947571
H 6.294081 7.551616 5.338946 1 0.05991960 -0.54661847 0.28273413
C 6.151234 5.709588 6.452805 6 0.32082094 1.00372134 -2.84087408
H 5.817177 6.187697 7.346322 1 -0.11745322 0.39617746 0.71599361
H 6.156155 4.634127 6.433673 1 0.18863632 -0.54416923 0.05535075
6
energy=-373.174882 Lattice="12.718 0.0 0.0 0.0 12.718 0.0 0.0 0.0 12.718" Properties=species:S:1:pos:R:3:Z:I:1:force:R:3
C 5.939335 6.853999 9.285695 6 -1.17078146 2.19399537 1.91611754
H 5.875213 8.000272 9.618583 1 0.53667035 -2.21482698 -1.06394639
H 5.479039 6.273329 10.144991 1 0.75603394 -0.05379060 -1.27812355
C 6.311756 6.454629 8.063626 6 -0.46984013 0.71614993 0.62085449
H 6.209962 5.418434 7.758804 1 0.23748834 -0.14270404 -0.17892423
H 6.604074 7.236637 7.348266 1 0.10915266 -0.49995497 -0.01932648
6
energy=-373.282591 Lattice="12.718 0.0 0.0 0.0 12.718 0.0 0.0 0.0 12.718" Properties=species:S:1:pos:R:3:Z:I:1:force:R:3
C 6.467278 5.829972 5.883376 6 0.63009042 -2.18361068 -0.56732974
H 6.570258 4.700742 5.792205 1 -0.08834265 1.37251087 -0.63279008
H 6.773659 6.552130 5.115651 1 -0.14480515 -0.58815981 -0.14980852
C 6.112112 6.277096 7.062456 6 0.13031286 1.61712529 1.02717085
H 6.160885 7.358147 7.179534 1 -0.33250096 0.24625170 0.33887421
H 5.914202 5.726169 7.972296 1 -0.19629872 -0.46125881 -0.02930854
6
energy=-373.262693 Lattice="12.718 0.0 0.0 0.0 12.718 0.0 0.0 0.0 12.718" Properties=species:S:1:pos:R:3:Z:I:1:force:R:3
C 6.386569 6.374424 6.692007 6 1.47101247 1.67488413 -1.87640940
H 6.585022 5.712976 5.842169 1 -0.40549360 -0.33404156 0.37538442
H 6.707047 7.411543 6.489424 1 -0.36756723 -0.17014699 -0.27761095
C 6.073507 6.106476 7.931215 6 0.00595005 0.32357614 0.51410479
H 6.064169 6.945760 8.632357 1 -0.21059098 -0.50129657 0.30511714
H 5.924413 5.089384 8.180087 1 -0.49480453 -0.99868609 0.96451405
6
energy=-373.249135 Lattice="12.718 0.0 0.0 0.0 12.718 0.0 0.0 0.0 12.718" Properties=species:S:1:pos:R:3:Z:I:1:force:R:3
C 5.833379 7.139746 9.983658 6 -0.54519047 0.02581029 0.63918956
H 5.831425 8.155864 10.495828 1 0.10181370 -1.12191966 -0.69934107
H 5.401823 6.289358 10.683974 1 0.98583828 1.49155612 -1.67532533
C 6.219843 6.970007 8.686898 6 -0.50607214 -1.03522766 1.66288993
H 6.181993 5.936621 8.296891 1 0.04333238 0.46621333 -0.12141735
H 6.612656 7.738605 8.022618 1 -0.07877197 0.16519812 0.19887291
6
energy=-373.290806 Lattice="12.718 0.0 0.0 0.0 12.718 0.0 0.0 0.0 12.718" Properties=species:S:1:pos:R:3:Z:I:1:force:R:3
C 6.136043 6.498269 6.807420 6 -0.31245302 -0.11348086 0.92006581
H 5.784191 7.574576 6.912846 1 0.52421026 -1.41806879 0.17989456
H 6.182735 5.759717 7.649296 1 -0.22264381 1.16037722 -0.14914569
C 6.458314 5.991739 5.626765 6 -0.08343081 -0.73733429 0.00981031
H 6.713632 4.950917 5.409413 1 0.11045261 -0.00008176 0.49873061
H 6.391574 6.571327 4.758021 1 -0.01717087 1.11558960 -1.47104281
6
energy=-373.276305 Lattice="12.718 0.0 0.0 0.0 12.718 0.0 0.0 0.0 12.718" Properties=species:S:1:pos:R:3:Z:I:1:force:R:3
C 5.979989 6.186641 9.157790 6 0.47850424 -0.00420119 -0.63611966
H 6.046827 6.397476 10.192300 1 -0.14372683 0.10409941 1.37378511
H 5.865307 5.115291 8.926984 1 -0.10226776 0.54288831 -0.44102164
C 6.212681 7.217560 8.342110 6 -0.06247785 -0.24488438 -0.83514067
H 6.259879 7.225720 7.261960 1 -0.17091163 -0.84312344 -0.53628262
H 6.400599 8.236733 8.625490 1 0.00048131 0.44255145 1.06970875
6
energy=-373.280462 Lattice="12.718 0.0 0.0 0.0 12.718 0.0 0.0 0.0 12.718" Properties=species:S:1:pos:R:3:Z:I:1:force:R:3
C 6.411372 5.701371 5.474055 6 -0.15500369 -0.24313294 1.85353016
H 6.593180 4.604064 5.761539 1 -0.26443095 1.58778692 -0.55368952
H 6.521337 6.010850 4.435063 1 -0.03870901 -0.17670845 -0.05300899
C 6.093139 6.616446 6.431652 6 0.27502802 0.35673979 0.50933899
H 5.943036 7.718589 6.271782 1 0.12507963 -0.97755160 -0.54115950
H 6.026078 6.449109 7.548014 1 0.06093210 -0.55254486 -1.20623288
6
energy=-373.322795 Lattice="12.718 0.0 0.0 0.0 12.718 0.0 0.0 0.0 12.718" Properties=species:S:1:pos:R:3:Z:I:1:force:R:3
C 6.176529 5.781413 7.191076 6 -0.13397205 -2.01387404 -0.24634477
H 6.077628 6.149814 8.224622 1 0.01082847 0.40944487 -0.60408472
H 6.099915 4.658870 7.121170 1 -0.05613494 0.91592736 0.20858398
C 6.405772 6.431428 6.046485 6 1.03651836 0.28802135 0.08541159
H 6.653441 5.925799 5.082612 1 -0.55293361 0.18479611 0.73430656
H 6.642145 7.495469 6.075899 1 -0.30256352 0.21324591 -0.17616594
6
energy=-373.240622 Lattice="12.718 0.0 0.0 0.0 12.718 0.0 0.0 0.0 12.718" Properties=species:S:1:pos:R:3:Z:I:1:force:R:3
C 6.401062 5.636623 5.882144 6 -0.37305551 2.19057426 -0.32122974
H 6.538903 4.798091 6.458918 1 0.28878291 -2.30410552 1.02349571
H 6.482259 5.668894 4.843634 1 0.23807712 -0.65291155 -1.91253394
C 6.155747 6.788394 6.478994 6 0.13718696 1.37175239 0.39645102
H 6.085932 7.792569 5.984180 1 -0.09065716 -0.99977932 0.26099338
H 6.128811 6.772832 7.557272 1 -0.19984222 0.39150987 0.54598186
6
energy=-373.397027 Lattice="12.718 0.0 0.0 0.0 12.718 0.0 0.0 0.0 12.718" Properties=species:S:1:pos:R:3:Z:I:1:force:R:3
C 6.280699 5.510912 6.042399 6 0.20078890 -1.20289096 -0.11733083
H 6.123827 5.150319 7.056260 1 0.05160413 -0.64965498 -0.00615831
H 6.487429 4.778801 5.211018 1 -0.24591899 0.80538476 0.84504457
C 6.228974 6.821460 5.918740 6 -0.11658830 1.17751930 -1.03963402
H 6.336593 7.326184 4.947356 1 0.07633971 -0.09577469 0.20293166
H 6.015395 7.478813 6.760528 1 0.03267155 -0.03728565 0.11142603
6
energy=-373.347083 Lattice="12.718 0.0 0.0 0.0 12.718 0.0 0.0 0.0 12.718" Properties=species:S:1:pos:R:3:Z:I:1:force:R:3
C 6.217698 6.735009 5.944264 6 0.28087831 2.02527329 -0.73953413
H 6.401312 7.367927 5.000335 1 -0.35390900 -0.74233612 1.53954476
H 6.018433 7.227616 6.906366 1 -0.01897270 0.21639242 -0.39744038
C 6.313412 5.425107 5.890807 6 -0.08513443 -0.85872233 -0.00886568
H 6.141855 4.816237 6.797641 1 0.18248881 -0.01415548 -0.63002305
H 6.535917 5.002636 4.910794 1 -0.00638148 -0.63013516 0.23330618
6
energy=-373.265609 Lattice="12.718 0.0 0.0 0.0 12.718 0.0 0.0 0.0 12.718" Properties=species:S:1:pos:R:3:Z:I:1:force:R:3
C 6.204459 6.928889 6.493968 6 0.20847496 -0.85779673 0.03615025
H 6.136211 7.584882 5.685533 1 -0.25049916 1.74220029 -1.08628929
H 6.098763 7.305655 7.499470 1 0.04799019 -0.00223223 0.34293707
C 6.422776 5.662354 6.140254 6 -0.44337883 0.18930686 1.33777164
H 6.459842 4.963829 6.992890 1 0.19556236 -0.49506473 -0.88644501
H 6.428295 5.430249 5.074362 1 0.24232819 -0.56299023 0.25614325
6
energy=-373.217383 Lattice="12.718 0.0 0.0 0.0 12.718 0.0 0.0 0.0 12.718" Properties=species:S:1:pos:R:3:Z:I:1:force:R:3
C 6.380423 5.936775 7.157142 6 0.88870141 -1.72936842 -0.65144910
H 6.440764 4.782812 7.233034 1 -0.23745852 1.79004187 -0.29756838
H 6.785057 6.411540 6.202505 1 -0.71132088 -0.69128683 1.11062069
C 6.037334 6.691988 8.202252 6 0.38584110 -0.06017260 0.47138999
H 6.180627 7.762511 7.993684 1 -0.46288683 -0.02994309 0.80758511
H 5.790754 6.276524 9.235749 1 0.13398748 0.72292274 -1.43779174
6