LAMMPS data file via write_data, version 2 Aug 2023, timestep = 130000, units = metal

6 atoms
2 atom types

0 10 xlo xhi
0 10 ylo yhi
0 10 zlo zhi

Masses

1 12.0107
2 1.00794

Atoms # atomic

5 2 4.439175547774996 3.7514046103207943 4.294379382727246 0 0 0
1 1 4.968237535412317 4.615408062526973 4.459163090953929 0 0 0
6 2 5.368051138604285 5.124260899402413 3.583153448490006 0 0 0
3 2 4.532911977661303 5.057283043154384 6.438619425062399 0 0 0
2 1 5.03873467107686 5.35671431314001 5.560197974705535 0 0 0
4 2 5.579161264600334 6.398840993861285 5.4549089978851475 0 0 0

Velocities

5 -22.373675483766057 -3.3871828234528074 16.31154213496603
1 -13.596473435088132 0.25130801562407656 -3.5284547938981037
6 30.739401950070924 -45.04046011020799 16.59316021402247
3 16.64884573623442 15.867466623748808 37.85719659984897
2 9.08215533046142 5.119426241617415 -1.4335579834660774
4 28.778431804881013 -31.43795645935132 -11.63412659622459
