ITEM: TIMESTEP
90000
ITEM: NUMBER OF ATOMS
6
ITEM: BOX BOUNDS pp pp pp
0.0000000000000000e+00 1.0000000000000000e+01
0.0000000000000000e+00 1.0000000000000000e+01
0.0000000000000000e+00 1.0000000000000000e+01
ITEM: ATOMS id type x y z vx vy vz
1 1 5.38329 4.97885 4.47807 -7.72008 -7.55907 -5.09543
5 2 6.10156 4.13176 4.37243 -12.5736 -40.6347 -11.3521
6 2 5.27316 5.66288 3.76164 2.63534 -20.407 -13.6187
3 2 4.68522 4.29725 6.3458 -9.36364 -34.7921 10.4653
4 2 3.77919 5.67218 5.63019 45.4681 30.6105 24.6771
2 1 4.63041 5.04091 5.51285 5.52421 13.0326 4.24182
ITEM: TIMESTEP
90100
ITEM: NUMBER OF ATOMS
6
ITEM: BOX BOUNDS pp pp pp
0.0000000000000000e+00 1.0000000000000000e+01
0.0000000000000000e+00 1.0000000000000000e+01
0.0000000000000000e+00 1.0000000000000000e+01
ITEM: ATOMS id type x y z vx vy vz
1 1 4.53172 4.6716 4.72203 -6.14131 9.60476 12.278
5 2 3.71919 5.1001 4.23821 -8.88539 -12.672 -15.4877
6 2 4.55333 3.50521 4.56945 -34.7222 -31.8135 9.81541
3 2 5.37717 6.40023 5.32057 34.1884 -2.92035 -57.5856
4 2 6.40878 4.80945 5.63233 13.6563 -25.1363 1.52498
2 1 5.46358 5.34389 5.29822 5.78573 -3.51702 -7.09735
ITEM: TIMESTEP
90200
ITEM: NUMBER OF ATOMS
6
ITEM: BOX BOUNDS pp pp pp
0.0000000000000000e+00 1.0000000000000000e+01
0.0000000000000000e+00 1.0000000000000000e+01
0.0000000000000000e+00 1.0000000000000000e+01
ITEM: ATOMS id type x y z vx vy vz
1 1 4.60676 5.42765 5.28745 11.1777 4.94874 -1.07615
5 2 3.51348 5.11377 5.68029 13.6105 12.8737 29.2596
6 2 4.89844 6.44988 5.425 12.7713 -13.8822 -16.1038
3 2 5.13907 3.45989 4.4536 11.1049 -20.3272 33.8149
4 2 6.35725 4.98821 4.43726 6.99542 -29.5732 -56.7747
2 1 5.40114 4.57133 4.71303 -14.9106 -0.676464 1.89891
ITEM: TIMESTEP
90300
ITEM: NUMBER OF ATOMS
6
ITEM: BOX BOUNDS pp pp pp
0.0000000000000000e+00 1.0000000000000000e+01
0.0000000000000000e+00 1.0000000000000000e+01
0.0000000000000000e+00 1.0000000000000000e+01
ITEM: ATOMS id type x y z vx vy vz
1 1 5.46049 5.44509 4.80335 -0.80984 -7.43307 -5.60067
5 2 6.43893 5.18384 4.56275 -47.7538 -9.79206 -25.1819
6 2 5.09783 6.53047 4.82571 44.4245 -4.77929 -25.3197
3 2 4.7742 3.49774 5.18911 -40.1637 -7.90228 -25.8683
4 2 3.49132 4.86763 5.59533 41.6389 14.7846 30.6363
2 1 4.55631 4.54819 5.1823 0.96544 8.07834 9.43864
ITEM: TIMESTEP
90400
ITEM: NUMBER OF ATOMS
6
ITEM: BOX BOUNDS pp pp pp
0.0000000000000000e+00 1.0000000000000000e+01
0.0000000000000000e+00 1.0000000000000000e+01
0.0000000000000000e+00 1.0000000000000000e+01
ITEM: ATOMS id type x y z vx vy vz
1 1 5.02613 4.66971 4.40543 -14.0496 0.0639063 2.84724
5 2 4.72641 5.149 3.45811 10.9482 -15.2091 -19.2769
6 2 5.2971 3.69208 4.3443 -29.0605 -22.1066 26.3997
3 2 4.64548 6.41241 5.51313 71.1345 -26.9592 2.97897
4 2 5.15778 4.84451 6.50438 -0.607795 17.556 -0.401666
2 1 4.98861 5.32203 5.60983 9.65097 3.85676 -3.66128
ITEM: TIMESTEP
90500
ITEM: NUMBER OF ATOMS
6
ITEM: BOX BOUNDS pp pp pp
0.0000000000000000e+00 1.0000000000000000e+01
0.0000000000000000e+00 1.0000000000000000e+01
0.0000000000000000e+00 1.0000000000000000e+01
ITEM: ATOMS id type x y z vx vy vz
1 1 4.3115 4.93715 5.06154 4.62228 9.09728 8.09933
5 2 3.92516 3.93873 5.30142 -19.7327 -8.92847 45.2466
6 2 3.65346 5.83186 4.75802 18.2056 18.7592 -9.54598
3 2 6.37255 4.36118 5.19156 -0.931549 -0.43917 9.16483
4 2 6.06212 6.00928 4.48916 -0.0325397 -55.3123 -32.6739
2 1 5.68759 5.05098 4.96042 -4.41322 -5.24361 -9.12245
ITEM: TIMESTEP
90600
ITEM: NUMBER OF ATOMS
6
ITEM: BOX BOUNDS pp pp pp
0.0000000000000000e+00 1.0000000000000000e+01
0.0000000000000000e+00 1.0000000000000000e+01
0.0000000000000000e+00 1.0000000000000000e+01
ITEM: ATOMS id type x y z vx vy vz
1 1 4.99459 5.64896 5.2229 7.5692 -1.68214 -5.70858
5 2 5.79008 6.39244 4.86088 -13.8964 -35.0427 -12.9558
6 2 4.28846 5.96885 6.03357 40.7201 26.8225 31.1039
3 2 5.70835 4.05727 3.91023 -29.7206 4.6041 -10.6983
4 2 4.40572 3.66824 5.30298 -7.28124 18.166 70.2057
2 1 4.98945 4.34372 4.76822 -6.71505 0.461109 -0.808277
ITEM: TIMESTEP
90700
ITEM: NUMBER OF ATOMS
6
ITEM: BOX BOUNDS pp pp pp
0.0000000000000000e+00 1.0000000000000000e+01
0.0000000000000000e+00 1.0000000000000000e+01
0.0000000000000000e+00 1.0000000000000000e+01
ITEM: ATOMS id type x y z vx vy vz
1 1 5.43698 5.10172 4.48626 -2.34413 -10.0896 -8.0698
5 2 5.73049 6.14341 4.25611 16.3968 28.4776 22.0145
6 2 5.96351 4.2977 3.94707 -71.7523 -25.0294 2.54069
3 2 4.28252 5.80604 5.98066 29.0688 35.5264 15.5368
4 2 4.16164 3.82477 5.75262 -8.38257 32.09 4.79308
2 1 4.55163 4.89221 5.51922 5.25359 4.12582 4.30304
ITEM: TIMESTEP
90800
ITEM: NUMBER OF ATOMS
6
ITEM: BOX BOUNDS pp pp pp
0.0000000000000000e+00 1.0000000000000000e+01
0.0000000000000000e+00 1.0000000000000000e+01
0.0000000000000000e+00 1.0000000000000000e+01
ITEM: ATOMS id type x y z vx vy vz
1 1 4.59217 4.594 4.62996 -9.83529 -3.96336 9.2458
5 2 4.46261 3.58075 5.03104 -25.8783 45.9591 37.6875
6 2 4.11767 5.09732 3.71333 5.41628 31.9741 -21.569
3 2 5.7509 5.08752 6.33845 -3.05844 -12.0689 -33.7938
4 2 5.67909 6.37561 5.11542 35.7135 8.31422 -44.5386
2 1 5.40717 5.39411 5.35356 8.81205 -2.26171 -4.02479
ITEM: TIMESTEP
90900
ITEM: NUMBER OF ATOMS
6
ITEM: BOX BOUNDS pp pp pp
0.0000000000000000e+00 1.0000000000000000e+01
0.0000000000000000e+00 1.0000000000000000e+01
0.0000000000000000e+00 1.0000000000000000e+01
ITEM: ATOMS id type x y z vx vy vz
1 1 4.50127 5.30294 5.29371 2.65621 5.99959 5.48628
5 2 4.18468 6.36918 4.99488 5.43813 18.9701 -23.497
6 2 3.87583 4.78202 6.05492 63.9723 53.2449 14.6493
3 2 6.04448 5.11223 3.83157 -15.9704 22.2193 -50.8756
4 2 5.70072 3.69909 5.09571 -23.009 -0.0715321 17.4202
2 1 5.51524 4.70017 4.70837 -5.20999 -13.9185 -1.93619
ITEM: TIMESTEP
91000
ITEM: NUMBER OF ATOMS
6
ITEM: BOX BOUNDS pp pp pp
0.0000000000000000e+00 1.0000000000000000e+01
0.0000000000000000e+00 1.0000000000000000e+01
0.0000000000000000e+00 1.0000000000000000e+01
ITEM: ATOMS id type x y z vx vy vz
4 2 4.71777 3.56596 4.35488 -23.9018 -9.09127 4.1824
1 1 5.35566 5.54415 4.9073 8.27291 1.45709 -6.2354
6 2 6.11269 5.63379 4.09328 -7.59883 -3.36255 -52.493
3 2 3.93489 4.38037 5.95424 26.308 13.7522 15.7982
2 1 4.63635 4.46469 5.08619 -9.93219 5.3423 9.85496
5 2 5.33236 6.31404 5.67703 24.9646 -82.3204 -10.6185
ITEM: TIMESTEP
91100
ITEM: NUMBER OF ATOMS
6
ITEM: BOX BOUNDS pp pp pp
0.0000000000000000e+00 1.0000000000000000e+01
0.0000000000000000e+00 1.0000000000000000e+01
0.0000000000000000e+00 1.0000000000000000e+01
ITEM: ATOMS id type x y z vx vy vz
4 2 5.03249 6.23917 5.96719 29.4083 -22.102 -39.1624
1 1 5.12342 4.742 4.40629 -4.94387 -2.53935 -1.0638
6 2 5.47934 5.39026 3.67681 -5.80794 -42.7134 19.2536
3 2 4.4206 4.59782 6.35411 -0.52972 21.6565 -7.05736
2 1 4.89357 5.26459 5.5825 9.37362 7.42064 5.18709
5 2 4.86753 3.69383 4.1373 -75.856 -15.007 -22.1672
ITEM: TIMESTEP
91200
ITEM: NUMBER OF ATOMS
6
ITEM: BOX BOUNDS pp pp pp
0.0000000000000000e+00 1.0000000000000000e+01
0.0000000000000000e+00 1.0000000000000000e+01
0.0000000000000000e+00 1.0000000000000000e+01
ITEM: ATOMS id type x y z vx vy vz
4 2 6.22377 4.63955 5.78244 16.6896 -11.6688 4.14852
1 1 4.36696 4.84656 4.96916 -2.99353 13.7587 1.61609
6 2 3.87681 4.24735 5.80189 -8.19253 26.8749 61.6661
3 2 6.16448 5.76567 4.38607 0.565586 -27.5561 -39.8599
2 1 5.64152 5.17189 5.0103 2.22879 -9.9976 -5.24963
5 2 3.63633 5.12719 4.27621 0.04997 -32.4678 17.3428
ITEM: TIMESTEP
91300
ITEM: NUMBER OF ATOMS
6
ITEM: BOX BOUNDS pp pp pp
0.0000000000000000e+00 1.0000000000000000e+01
0.0000000000000000e+00 1.0000000000000000e+01
0.0000000000000000e+00 1.0000000000000000e+01
ITEM: ATOMS id type x y z vx vy vz
4 2 5.33666 4.3291 3.67559 -21.3922 -18.2005 -24.7329
1 1 4.88091 5.60099 5.28077 13.237 3.31756 -7.54828
6 2 4.77821 6.49009 4.72788 -21.2375 -11.7792 -1.72579
3 2 5.01476 3.32364 5.12295 -0.438821 -27.3507 12.4833
2 1 5.13204 4.41298 4.72268 -14.1489 1.00601 7.04325
5 2 4.71842 5.69029 6.43425 53.9348 5.81032 19.9933
ITEM: TIMESTEP
91400
ITEM: NUMBER OF ATOMS
6
ITEM: BOX BOUNDS pp pp pp
0.0000000000000000e+00 1.0000000000000000e+01
0.0000000000000000e+00 1.0000000000000000e+01
0.0000000000000000e+00 1.0000000000000000e+01
ITEM: ATOMS id type x y z vx vy vz
4 2 4.29683 5.06754 6.5696 37.0028 11.5147 1.42722
1 1 5.46463 5.24049 4.57148 -3.98889 -12.1038 1.67928
6 2 6.30639 6.00761 4.87594 19.097 -31.4173 -27.8893
3 2 3.95449 3.89115 5.13141 -23.9391 34.2564 5.2351
2 1 4.52288 4.77432 5.41395 4.43753 9.24485 1.07941
5 2 5.59366 4.85679 3.59849 -37.5067 19.714 -11.6457
ITEM: TIMESTEP
91500
ITEM: NUMBER OF ATOMS
6
ITEM: BOX BOUNDS pp pp pp
0.0000000000000000e+00 1.0000000000000000e+01
0.0000000000000000e+00 1.0000000000000000e+01
0.0000000000000000e+00 1.0000000000000000e+01
ITEM: ATOMS id type x y z vx vy vz
4 2 5.22539 5.24228 6.52094 -1.8139 32.9134 -42.1677
1 1 4.69224 4.59566 4.543 -4.97552 4.24564 4.76983
6 2 3.91308 3.91863 4.71725 -34.3289 42.5764 39.2608
3 2 5.96259 6.25254 5.10153 6.89914 -43.8845 -1.73584
2 1 5.30813 5.39567 5.4784 8.19253 -4.93303 -6.5646
5 2 4.89697 4.6894 3.40711 -9.09053 -23.4144 26.0294
ITEM: TIMESTEP
91600
ITEM: NUMBER OF ATOMS
6
ITEM: BOX BOUNDS pp pp pp
0.0000000000000000e+00 1.0000000000000000e+01
0.0000000000000000e+00 1.0000000000000000e+01
0.0000000000000000e+00 1.0000000000000000e+01
ITEM: ATOMS id type x y z vx vy vz
4 2 5.90082 5.05858 3.70488 -39.825 -40.154 -19.5701
1 1 4.39273 5.22126 5.29547 9.68333 10.6023 1.37881
6 2 3.68833 5.77409 4.59464 26.422 -28.9812 8.59286
3 2 6.26952 4.16627 5.17762 -10.0464 -5.63546 3.58324
2 1 5.60366 4.77464 4.72406 -8.92363 -6.29712 -2.72187
5 2 4.18682 5.04959 6.2919 14.3967 23.4696 23.398
ITEM: TIMESTEP
91700
ITEM: NUMBER OF ATOMS
6
ITEM: BOX BOUNDS pp pp pp
0.0000000000000000e+00 1.0000000000000000e+01
0.0000000000000000e+00 1.0000000000000000e+01
0.0000000000000000e+00 1.0000000000000000e+01
ITEM: ATOMS id type x y z vx vy vz
4 2 4.46648 3.83362 5.86648 20.3743 0.192253 43.4874
1 1 5.30822 5.61698 5.0731 4.53678 -8.31569 -10.269
6 2 5.64489 6.12498 5.93636 55.191 14.4909 9.43677
3 2 4.50362 3.96676 3.88102 -34.5556 27.2411 -17.4864
2 1 4.68584 4.37456 4.94486 -7.03637 7.37263 6.63858
5 2 5.45825 6.17501 4.10394 -11.2244 -30.6867 7.82316
ITEM: TIMESTEP
91800
ITEM: NUMBER OF ATOMS
6
ITEM: BOX BOUNDS pp pp pp
0.0000000000000000e+00 1.0000000000000000e+01
0.0000000000000000e+00 1.0000000000000000e+01
0.0000000000000000e+00 1.0000000000000000e+01
ITEM: ATOMS id type x y z vx vy vz
4 2 3.87582 4.57164 6.12964 -2.59267 47.8021 -26.8957
1 1 5.24222 4.85968 4.37696 -13.0329 -11.5792 -4.1442
6 2 4.76517 4.04618 3.70238 -31.5134 7.99833 20.4578
3 2 5.30712 5.94294 6.17894 37.6508 -20.3703 6.76087
2 1 4.74738 5.1491 5.61805 9.07463 7.59449 3.6883
5 2 6.1782 5.33419 4.05034 43.6224 12.0522 5.10954
ITEM: TIMESTEP
91900
ITEM: NUMBER OF ATOMS
6
ITEM: BOX BOUNDS pp pp pp
0.0000000000000000e+00 1.0000000000000000e+01
0.0000000000000000e+00 1.0000000000000000e+01
0.0000000000000000e+00 1.0000000000000000e+01
ITEM: ATOMS id type x y z vx vy vz
4 2 6.23782 5.60684 4.32902 9.55042 -52.8865 -34.8638
1 1 4.37277 4.76351 4.88791 -7.3105 5.45358 14.9967
6 2 4.08671 4.84838 3.83187 -1.41438 2.80192 -34.983
3 2 5.98489 5.35977 6.10835 -32.1004 5.24929 -28.8185
2 1 5.63697 5.21369 5.11524 8.99667 -4.57553 -6.99855
5 2 3.57704 4.45618 5.69508 3.87172 34.3723 3.35901
ITEM: TIMESTEP
92000
ITEM: NUMBER OF ATOMS
6
ITEM: BOX BOUNDS pp pp pp
0.0000000000000000e+00 1.0000000000000000e+01
0.0000000000000000e+00 1.0000000000000000e+01
0.0000000000000000e+00 1.0000000000000000e+01
ITEM: ATOMS id type x y z vx vy vz
3 2 5.01908 4.2703 3.56946 -70.2303 -22.371 -23.0999
2 1 5.21893 4.4562 4.65516 -6.25809 -9.48569 3.28413
5 2 4.2668 6.30858 4.81624 -17.2223 18.68 -32.4145
4 2 5.7322 3.77476 5.26463 7.42925 -11.1741 -5.86811
1 1 4.7937 5.53363 5.33649 10.5204 11.1536 4.26083
6 2 4.8338 5.7671 6.45102 29.2335 -5.00954 -28.524
ITEM: TIMESTEP
92100
ITEM: NUMBER OF ATOMS
6
ITEM: BOX BOUNDS pp pp pp
0.0000000000000000e+00 1.0000000000000000e+01
0.0000000000000000e+00 1.0000000000000000e+01
0.0000000000000000e+00 1.0000000000000000e+01
ITEM: ATOMS id type x y z vx vy vz
3 2 4.49538 4.42789 6.35001 20.0885 -33.0526 -16.4246
2 1 4.52183 4.65906 5.3022 -6.52396 7.89256 15.8513
5 2 6.38533 5.74277 5.24404 -10.9304 -53.9971 -12.8654
4 2 3.52981 4.29264 4.80779 -20.5942 33.631 19.8588
1 1 5.49174 5.33806 4.69424 7.66827 -2.73225 -10.6792
6 2 5.43028 5.57063 3.64244 -2.19957 -8.07194 -52.2001
ITEM: TIMESTEP
92200
ITEM: NUMBER OF ATOMS
6
ITEM: BOX BOUNDS pp pp pp
0.0000000000000000e+00 1.0000000000000000e+01
0.0000000000000000e+00 1.0000000000000000e+01
0.0000000000000000e+00 1.0000000000000000e+01
ITEM: ATOMS id type x y z vx vy vz
3 2 4.44214 5.69704 6.32559 15.5912 41.8007 -20.8961
2 1 5.18741 5.35601 5.53186 11.2895 6.44776 1.33838
5 2 3.84341 4.14488 4.20773 -33.245 9.96413 -22.9946
4 2 6.13854 5.64567 5.75927 10.1496 -49.5863 -21.9671
1 1 4.81385 4.64836 4.47454 -7.6432 -4.86754 1.69534
6 2 5.56337 4.45995 3.63298 -35.9456 -21.0086 29.7078
ITEM: TIMESTEP
92300
ITEM: NUMBER OF ATOMS
6
ITEM: BOX BOUNDS pp pp pp
0.0000000000000000e+00 1.0000000000000000e+01
0.0000000000000000e+00 1.0000000000000000e+01
0.0000000000000000e+00 1.0000000000000000e+01
ITEM: ATOMS id type x y z vx vy vz
3 2 5.94032 4.56416 3.87195 3.52318 -49.8891 -10.3706
2 1 5.61729 4.85857 4.78425 -4.91461 -8.90474 -3.2161
5 2 3.49886 5.23271 4.57986 25.0317 -18.7599 35.9729
4 2 6.51495 5.00455 5.49658 31.9638 2.23631 -20.141
1 1 4.38036 5.12356 5.20299 -3.30292 11.1313 1.47358
6 2 4.07632 5.41108 6.2055 37.4021 39.8807 15.3027
ITEM: TIMESTEP
92400
ITEM: NUMBER OF ATOMS
6
ITEM: BOX BOUNDS pp pp pp
0.0000000000000000e+00 1.0000000000000000e+01
0.0000000000000000e+00 1.0000000000000000e+01
0.0000000000000000e+00 1.0000000000000000e+01
ITEM: ATOMS id type x y z vx vy vz
3 2 5.0664 3.39343 5.44953 14.7343 -25.246 10.3694
2 1 4.78465 4.39104 4.85668 -10.8463 4.84727 7.14807
5 2 5.8212 5.81864 6.00138 52.2595 -1.8061 -2.12046
4 2 4.0526 4.04468 4.21043 -36.1458 1.36388 29.4092
1 1 5.22542 5.62805 5.11909 8.04348 -3.45957 -11.0847
6 2 4.94223 6.51527 4.62926 2.55076 9.15219 9.25132
ITEM: TIMESTEP
92500
ITEM: NUMBER OF ATOMS
6
ITEM: BOX BOUNDS pp pp pp
0.0000000000000000e+00 1.0000000000000000e+01
0.0000000000000000e+00 1.0000000000000000e+01
0.0000000000000000e+00 1.0000000000000000e+01
ITEM: ATOMS id type x y z vx vy vz
3 2 3.56741 5.11618 5.56932 26.8227 28.4077 31.5705
2 1 4.6272 5.05551 5.56253 3.63022 9.74823 -3.60367
5 2 4.92354 4.84864 3.41822 -4.71642 15.4571 -13.087
4 2 5.09953 5.04701 6.67106 33.8575 -7.83144 1.16938
1 1 5.36291 4.94732 4.44293 -8.38637 -7.81958 3.07639
6 2 6.5299 4.95399 4.27815 0.710855 -59.0153 -13.3698
ITEM: TIMESTEP
92600
ITEM: NUMBER OF ATOMS
6
ITEM: BOX BOUNDS pp pp pp
0.0000000000000000e+00 1.0000000000000000e+01
0.0000000000000000e+00 1.0000000000000000e+01
0.0000000000000000e+00 1.0000000000000000e+01
ITEM: ATOMS id type x y z vx vy vz
3 2 6.62704 5.11056 4.84266 1.70371 -9.91171 -2.28733
2 1 5.54289 5.30627 5.26206 0.717649 -8.3901 -5.77829
5 2 4.35338 4.05111 3.7999 -1.95798 -1.07485 56.8315
4 2 5.54069 5.91071 6.11827 29.6525 6.19421 -56.1729
1 1 4.4541 4.70483 4.734 -4.81787 3.87093 6.90079
6 2 3.51725 4.79496 5.28799 19.4604 58.6433 -11.7471
ITEM: TIMESTEP
92700
ITEM: NUMBER OF ATOMS
6
ITEM: BOX BOUNDS pp pp pp
0.0000000000000000e+00 1.0000000000000000e+01
0.0000000000000000e+00 1.0000000000000000e+01
0.0000000000000000e+00 1.0000000000000000e+01
ITEM: ATOMS id type x y z vx vy vz
3 2 6.26052 4.15613 4.96357 -20.3608 15.5954 12.3398
2 1 5.33939 4.4959 4.68713 -12.3263 -6.01282 -1.38591
5 2 5.08344 5.92751 6.14574 35.6638 32.1292 -39.1091
4 2 4.93683 3.97114 3.73851 -15.3624 -26.8286 11.5109
1 1 4.66365 5.51603 5.32738 10.9431 5.53836 -0.766035
6 2 3.68541 5.80266 4.9811 16.5417 -15.2422 40.9011
ITEM: TIMESTEP
92800
ITEM: NUMBER OF ATOMS
6
ITEM: BOX BOUNDS pp pp pp
0.0000000000000000e+00 1.0000000000000000e+01
0.0000000000000000e+00 1.0000000000000000e+01
0.0000000000000000e+00 1.0000000000000000e+01
ITEM: ATOMS id type x y z vx vy vz
3 2 3.42338 4.63464 4.80242 -9.29971 22.5156 19.4628
2 1 4.50601 4.58178 5.2053 -4.09386 8.7716 5.23438
5 2 5.19383 6.16432 4.05628 -17.0538 18.7411 7.73842
4 2 4.72023 3.92255 5.96981 5.22579 9.93076 29.4771
1 1 5.50922 5.40372 4.79623 -0.0266253 -10.6811 -6.43874
6 2 6.48351 5.45085 5.15516 70.2278 -28.4341 -42.3271
ITEM: TIMESTEP
92900
ITEM: NUMBER OF ATOMS
6
ITEM: BOX BOUNDS pp pp pp
0.0000000000000000e+00 1.0000000000000000e+01
0.0000000000000000e+00 1.0000000000000000e+01
0.0000000000000000e+00 1.0000000000000000e+01
ITEM: ATOMS id type x y z vx vy vz
3 2 5.86919 5.24712 6.20723 21.8076 1.80541 26.3709
2 1 5.02327 5.34049 5.57523 9.76598 5.5766 -1.06509
5 2 5.76545 3.94427 4.08284 -13.4604 -69.3359 11.5399
4 2 4.09371 5.8906 6.03804 34.6911 14.621 -14.5811
1 1 5.00196 4.6761 4.41081 -10.5712 -2.73542 0.406971
6 2 3.97348 4.71991 3.84008 -33.4432 19.0537 -15.4875
ITEM: TIMESTEP
93000
ITEM: NUMBER OF ATOMS
6
ITEM: BOX BOUNDS pp pp pp
0.0000000000000000e+00 1.0000000000000000e+01
0.0000000000000000e+00 1.0000000000000000e+01
0.0000000000000000e+00 1.0000000000000000e+01
ITEM: ATOMS id type x y z vx vy vz
6 2 3.75259 4.2365 4.57059 -14.4588 3.45781 42.5339
2 1 5.66484 4.97081 4.90879 7.01499 -7.66881 -5.57304
4 2 6.07534 4.30284 4.21011 7.64104 -32.3237 -10.4886
5 2 3.74784 5.807 5.80564 3.04661 32.4587 -31.013
1 1 4.33606 5.02954 5.08754 -4.69881 8.80986 9.59518
3 2 6.41595 5.64913 5.45921 -23.8286 -17.1896 -48.9606
ITEM: TIMESTEP
93100
ITEM: NUMBER OF ATOMS
6
ITEM: BOX BOUNDS pp pp pp
0.0000000000000000e+00 1.0000000000000000e+01
0.0000000000000000e+00 1.0000000000000000e+01
0.0000000000000000e+00 1.0000000000000000e+01
ITEM: ATOMS id type x y z vx vy vz
6 2 6.0768 6.00648 5.594 -6.62155 -2.1434 -48.2799
2 1 4.86819 4.36288 4.80593 -3.53455 -6.92532 5.75935
4 2 5.62628 3.57132 5.02178 -55.1104 5.63511 -13.0933
5 2 4.37733 6.37383 5.05047 21.6766 -17.9264 32.2444
1 1 5.12104 5.63582 5.20051 11.5708 8.95277 -5.42282
3 2 4.05039 4.06335 4.25883 -55.705 -9.72464 25.1187
ITEM: TIMESTEP
93200
ITEM: NUMBER OF ATOMS
6
ITEM: BOX BOUNDS pp pp pp
0.0000000000000000e+00 1.0000000000000000e+01
0.0000000000000000e+00 1.0000000000000000e+01
0.0000000000000000e+00 1.0000000000000000e+01
ITEM: ATOMS id type x y z vx vy vz
6 2 5.22832 5.52933 3.58764 -12.4766 12.5412 -30.2016
2 1 4.56618 4.96567 5.50631 6.94208 7.8825 13.2421
4 2 3.60686 5.33091 5.46709 -23.6378 57.4522 6.207
5 2 6.39798 4.58589 4.49602 -3.68096 -40.8636 -43.2705
1 1 5.43398 5.03449 4.48685 -1.5213 -10.3158 -6.16958
3 2 4.76737 4.55156 6.53254 -24.7992 -0.134781 -17.0122
ITEM: TIMESTEP
93300
ITEM: NUMBER OF ATOMS
6
ITEM: BOX BOUNDS pp pp pp
0.0000000000000000e+00 1.0000000000000000e+01
0.0000000000000000e+00 1.0000000000000000e+01
0.0000000000000000e+00 1.0000000000000000e+01
ITEM: ATOMS id type x y z vx vy vz
6 2 4.78882 3.62518 4.21378 -39.8225 -16.5701 17.0268
2 1 5.4425 5.3617 5.33977 8.94631 -2.43755 -8.44233
4 2 6.54901 5.03624 5.42229 -17.1779 -30.1604 7.09963
5 2 3.4434 4.89298 4.43477 -31.4268 17.5279 -8.90528
1 1 4.55549 4.65779 4.65917 -4.55088 -0.522529 7.4459
3 2 5.24514 6.213 5.94359 36.051 64.4751 -3.3476
ITEM: TIMESTEP
93400
ITEM: NUMBER OF ATOMS
6
ITEM: BOX BOUNDS pp pp pp
0.0000000000000000e+00 1.0000000000000000e+01
0.0000000000000000e+00 1.0000000000000000e+01
0.0000000000000000e+00 1.0000000000000000e+01
ITEM: ATOMS id type x y z vx vy vz
6 2 4.83482 6.35789 5.82816 12.3265 13.451 -30.4356
2 1 5.4579 4.60771 4.72599 -9.312 -7.17598 2.23197
4 2 6.5444 4.68092 4.727 29.4665 -11.6901 -63.5303
5 2 3.41402 5.29714 5.16936 47.6287 16.8477 29.4493
1 1 4.54842 5.38475 5.29733 3.37512 6.04235 0.0332502
3 2 5.13389 3.75359 3.99948 -18.6773 -5.10024 37.524
ITEM: TIMESTEP
93500
ITEM: NUMBER OF ATOMS
6
ITEM: BOX BOUNDS pp pp pp
0.0000000000000000e+00 1.0000000000000000e+01
0.0000000000000000e+00 1.0000000000000000e+01
0.0000000000000000e+00 1.0000000000000000e+01
ITEM: ATOMS id type x y z vx vy vz
6 2 5.22232 6.48359 4.55645 27.2526 -52.8586 20.4581
2 1 4.57711 4.50633 5.14434 -7.48087 11.677 7.48593
4 2 3.44244 4.59382 5.01909 24.6612 25.0309 61.7369
5 2 6.46355 5.29493 4.9294 7.57094 6.21162 -26.5936
1 1 5.41984 5.50336 4.8633 2.32238 -7.49984 -10.9987
3 2 4.91039 3.51185 5.4058 1.9843 -28.1592 -13.7424
ITEM: TIMESTEP
93600
ITEM: NUMBER OF ATOMS
6
ITEM: BOX BOUNDS pp pp pp
0.0000000000000000e+00 1.0000000000000000e+01
0.0000000000000000e+00 1.0000000000000000e+01
0.0000000000000000e+00 1.0000000000000000e+01
ITEM: ATOMS id type x y z vx vy vz
6 2 5.74367 3.87956 4.19242 -16.1607 -52.1889 -14.7638
2 1 4.88995 5.29796 5.60404 5.83421 10.1456 -11.0485
4 2 5.45905 4.94902 6.45938 7.17686 -28.1828 23.7896
5 2 4.69845 5.10943 3.55881 -11.3957 -9.1313 25.9597
1 1 5.0984 4.69262 4.40874 -9.66083 -3.38645 6.3519
3 2 4.24013 6.17382 5.63892 65.9778 8.96046 20.9792
ITEM: TIMESTEP
93700
ITEM: NUMBER OF ATOMS
6
ITEM: BOX BOUNDS pp pp pp
0.0000000000000000e+00 1.0000000000000000e+01
0.0000000000000000e+00 1.0000000000000000e+01
0.0000000000000000e+00 1.0000000000000000e+01
ITEM: ATOMS id type x y z vx vy vz
6 2 3.78514 5.77116 5.13517 4.61681 0.339908 -1.32259
2 1 5.66389 5.13098 5.00307 -5.04846 -2.98531 -5.49882
4 2 6.08676 6.13585 5.11318 29.6031 -37.1823 -69.0322
5 2 3.89044 3.82994 4.89425 -17.6884 -27.5292 22.2815
1 1 4.32469 4.87115 4.98864 2.45229 11.9251 8.34586
3 2 6.37622 4.23721 4.95801 14.4046 -42.1551 14.1477
ITEM: TIMESTEP
93800
ITEM: NUMBER OF ATOMS
6
ITEM: BOX BOUNDS pp pp pp
0.0000000000000000e+00 1.0000000000000000e+01
0.0000000000000000e+00 1.0000000000000000e+01
0.0000000000000000e+00 1.0000000000000000e+01
ITEM: ATOMS id type x y z vx vy vz
6 2 3.93795 6.13002 5.51081 10.4233 28.9442 18.7135
2 1 5.04389 4.36293 4.77509 -8.26673 -5.27419 3.50132
4 2 4.04328 3.71462 4.73748 -20.6172 -25.439 35.1089
5 2 5.88761 6.17254 5.27488 -4.47522 1.33129 -33.3677
1 1 4.96779 5.62953 5.24037 13.334 2.8288 -4.17958
3 2 5.99433 4.07234 4.29452 -45.7129 24.3031 -12.3725
ITEM: TIMESTEP
93900
ITEM: NUMBER OF ATOMS
6
ITEM: BOX BOUNDS pp pp pp
0.0000000000000000e+00 1.0000000000000000e+01
0.0000000000000000e+00 1.0000000000000000e+01
0.0000000000000000e+00 1.0000000000000000e+01
ITEM: ATOMS id type x y z vx vy vz
6 2 6.3093 4.52678 4.39043 -23.0469 -29.7748 -10.7411
2 1 4.51495 4.86021 5.45326 -1.66447 5.64608 10.4896
4 2 4.64886 3.93205 5.99679 -13.7789 49.0388 -16.881
5 2 5.42255 6.14643 3.99444 14.3316 -0.427502 -2.95763
1 1 5.4739 5.11547 4.53713 1.06952 -8.53288 -12.1478
3 2 3.75462 5.68411 5.73469 29.5837 15.5627 50.3385
ITEM: TIMESTEP
94000
ITEM: NUMBER OF ATOMS
6
ITEM: BOX BOUNDS pp pp pp
0.0000000000000000e+00 1.0000000000000000e+01
0.0000000000000000e+00 1.0000000000000000e+01
0.0000000000000000e+00 1.0000000000000000e+01
ITEM: ATOMS id type x y z vx vy vz
5 2 4.82089 3.57896 4.49557 -38.6339 -23.2739 36.5691
1 1 4.67151 4.58441 4.58845 -13.4069 -0.426412 2.07834
6 2 3.8467 5.13856 3.97984 -5.67426 -2.06952 -3.95477
2 1 5.33802 5.39359 5.41947 15.6731 0.310704 -2.149
4 2 5.20248 6.45593 5.31383 42.9277 6.81637 -13.8189
3 2 6.01877 5.08821 6.11831 -25.6234 19.9058 -17.9534
ITEM: TIMESTEP
94100
ITEM: NUMBER OF ATOMS
6
ITEM: BOX BOUNDS pp pp pp
0.0000000000000000e+00 1.0000000000000000e+01
0.0000000000000000e+00 1.0000000000000000e+01
0.0000000000000000e+00 1.0000000000000000e+01
ITEM: ATOMS id type x y z vx vy vz
5 2 4.38262 6.42239 5.57397 4.20626 20.1573 -24.1439
1 1 4.45228 5.27529 5.24305 4.65094 8.63639 6.20748
6 2 3.63654 4.69408 5.51024 -22.4479 21.1369 49.4535
2 1 5.5415 4.71346 4.73775 -5.30136 -10.3821 -5.5471
4 2 5.69456 3.68741 4.73962 5.66931 -22.293 18.7716
3 2 6.36277 5.32973 4.4068 20.3228 1.8008 -51.9503
ITEM: TIMESTEP
94200
ITEM: NUMBER OF ATOMS
6
ITEM: BOX BOUNDS pp pp pp
0.0000000000000000e+00 1.0000000000000000e+01
0.0000000000000000e+00 1.0000000000000000e+01
0.0000000000000000e+00 1.0000000000000000e+01
ITEM: ATOMS id type x y z vx vy vz
5 2 4.8768 6.47148 5.1681 48.263 20.1479 30.4319
1 1 5.34213 5.56171 4.96337 4.14684 -0.538414 -8.72685
6 2 6.49308 5.657 4.5542 -10.1242 -21.8101 -43.1394
2 1 4.65755 4.44095 5.04445 -4.59948 2.62119 6.19714
4 2 5.02761 3.38267 4.7166 -26.7443 -26.8667 5.45044
3 2 3.60874 4.45671 5.46972 -6.00081 3.71034 37.4012
ITEM: TIMESTEP
94300
ITEM: NUMBER OF ATOMS
6
ITEM: BOX BOUNDS pp pp pp
0.0000000000000000e+00 1.0000000000000000e+01
0.0000000000000000e+00 1.0000000000000000e+01
0.0000000000000000e+00 1.0000000000000000e+01
ITEM: ATOMS id type x y z vx vy vz
5 2 5.68375 3.69858 4.3499 -50.5548 -5.53251 -14.4676
1 1 5.18954 4.79434 4.38662 -11.844 -7.9543 -2.27948
6 2 5.1169 5.32806 3.51512 30.0434 -6.44523 16.9122
2 1 4.80104 5.21248 5.59727 10.0256 6.30597 4.15553
4 2 4.47987 6.26182 5.76057 42.5924 -9.95954 -7.55639
3 2 4.83423 4.62983 6.56823 -0.412313 41.579 -17.2433
ITEM: TIMESTEP
94400
ITEM: NUMBER OF ATOMS
6
ITEM: BOX BOUNDS pp pp pp
0.0000000000000000e+00 1.0000000000000000e+01
0.0000000000000000e+00 1.0000000000000000e+01
0.0000000000000000e+00 1.0000000000000000e+01
ITEM: ATOMS id type x y z vx vy vz
5 2 3.60428 5.36305 4.56025 27.4393 6.46154 0.490791
1 1 4.36513 4.80377 4.89976 -2.14272 3.47187 9.8262
6 2 4.0774 3.71513 5.23844 -34.2834 35.1255 48.4728
2 1 5.63953 5.21033 5.08155 3.20271 -7.01481 -12.9158
4 2 6.33213 4.59142 5.56714 -28.9811 8.22593 2.93409
3 2 5.93318 6.16198 4.85864 23.1943 -7.59497 -15.0818
ITEM: TIMESTEP
94500
ITEM: NUMBER OF ATOMS
6
ITEM: BOX BOUNDS pp pp pp
0.0000000000000000e+00 1.0000000000000000e+01
0.0000000000000000e+00 1.0000000000000000e+01
0.0000000000000000e+00 1.0000000000000000e+01
ITEM: ATOMS id type x y z vx vy vz
5 2 4.00505 5.53137 6.11787 38.3286 13.2144 28.3818
1 1 4.82039 5.57929 5.29333 9.50368 -0.5646 -0.686761
6 2 5.21659 6.4737 5.02666 -7.01726 -1.66171 -50.4885
2 1 5.19252 4.43363 4.69071 -10.6381 1.76391 5.51594
4 2 5.95734 4.27462 3.94619 5.33122 -36.2567 -57.1457
3 2 4.66966 3.56596 5.10135 -23.1242 10.4129 21.7075
ITEM: TIMESTEP
94600
ITEM: NUMBER OF ATOMS
6
ITEM: BOX BOUNDS pp pp pp
0.0000000000000000e+00 1.0000000000000000e+01
0.0000000000000000e+00 1.0000000000000000e+01
0.0000000000000000e+00 1.0000000000000000e+01
ITEM: ATOMS id type x y z vx vy vz
5 2 5.95259 4.566 4.0036 -30.5117 -20.3757 -44.6787
1 1 5.48539 5.26603 4.6188 -2.50776 -8.60729 -7.022
6 2 5.6769 6.42074 4.56537 18.6121 -21.1171 22.6269
2 1 4.53481 4.73237 5.38736 3.74307 12.3815 6.44114
4 2 3.7753 5.42704 5.9692 19.3875 24.3747 18.4848
3 2 4.35685 3.60485 5.3903 -22.208 -27.8561 10.4886
ITEM: TIMESTEP
94700
ITEM: NUMBER OF ATOMS
6
ITEM: BOX BOUNDS pp pp pp
0.0000000000000000e+00 1.0000000000000000e+01
0.0000000000000000e+00 1.0000000000000000e+01
0.0000000000000000e+00 1.0000000000000000e+01
ITEM: ATOMS id type x y z vx vy vz
5 2 4.59837 5.00614 3.47521 -0.82045 -9.97516 36.0939
1 1 4.7532 4.60221 4.53116 -9.7539 -0.624173 3.44813
6 2 4.62868 3.58733 4.78576 -60.075 -11.4569 10.9403
2 1 5.23296 5.39333 5.46878 13.241 4.8999 -6.02
4 2 5.52989 4.86965 6.39267 -5.97472 -4.33437 9.84781
3 2 5.41052 6.58967 5.34885 25.3182 -25.1835 -26.2354
ITEM: TIMESTEP
94800
ITEM: NUMBER OF ATOMS
6
ITEM: BOX BOUNDS pp pp pp
0.0000000000000000e+00 1.0000000000000000e+01
0.0000000000000000e+00 1.0000000000000000e+01
0.0000000000000000e+00 1.0000000000000000e+01
ITEM: ATOMS id type x y z vx vy vz
5 2 3.93414 4.5692 5.95441 15.5453 20.3711 54.6617
1 1 4.3943 5.14258 5.21957 1.70896 14.3483 2.67043
6 2 3.90103 6.04965 4.84937 2.81593 -28.7076 15.2697
2 1 5.60389 4.84463 4.77696 0.593437 -8.9941 -9.2397
4 2 6.1995 5.62429 4.17675 -29.3591 -57.7138 -5.03252
3 2 5.98933 3.90891 5.06257 -16.4377 2.24883 13.3811
ITEM: TIMESTEP
94900
ITEM: NUMBER OF ATOMS
6
ITEM: BOX BOUNDS pp pp pp
0.0000000000000000e+00 1.0000000000000000e+01
0.0000000000000000e+00 1.0000000000000000e+01
0.0000000000000000e+00 1.0000000000000000e+01
ITEM: ATOMS id type x y z vx vy vz
5 2 5.88044 6.03664 4.28792 -40.2476 -4.11904 -18.5222
1 1 5.23655 5.60868 5.06051 14.6557 -2.95164 -10.196
6 2 4.95733 6.20245 5.89204 13.9453 31.9479 41.2449
2 1 4.75973 4.388 4.9517 -6.6096 -0.28738 6.0098
4 2 4.05313 3.99332 5.5651 -1.47162 0.0149395 17.3276
3 2 5.15589 3.80673 4.11127 -68.1036 10.7526 9.8325
ITEM: TIMESTEP
95000
ITEM: NUMBER OF ATOMS
6
ITEM: BOX BOUNDS pp pp pp
0.0000000000000000e+00 1.0000000000000000e+01
0.0000000000000000e+00 1.0000000000000000e+01
0.0000000000000000e+00 1.0000000000000000e+01
ITEM: ATOMS id type x y z vx vy vz
1 1 5.28859 4.88174 4.417 -10.2921 -8.06484 0.360197
6 2 5.15323 3.86114 3.94353 -34.4609 3.30387 10.0543
5 2 5.81486 5.68467 3.84564 46.6602 8.75603 -59.1938
4 2 4.3206 4.26242 6.12556 -20.8758 24.5822 1.14998
2 1 4.7193 5.12761 5.58415 6.81426 1.57392 0.492566
3 2 4.61969 6.07992 6.07349 50.1183 40.7042 37.8279
ITEM: TIMESTEP
95100
ITEM: NUMBER OF ATOMS
6
ITEM: BOX BOUNDS pp pp pp
0.0000000000000000e+00 1.0000000000000000e+01
0.0000000000000000e+00 1.0000000000000000e+01
0.0000000000000000e+00 1.0000000000000000e+01
ITEM: ATOMS id type x y z vx vy vz
1 1 4.42332 4.72557 4.82774 -3.57447 8.64003 10.7044
6 2 3.89755 4.99628 3.86941 -39.3657 -7.09292 -28.1362
5 2 3.91365 3.81975 5.40966 -15.5554 30.4456 14.172
4 2 5.91805 6.13017 4.48568 14.4339 -18.8504 -55.1026
2 1 5.57696 5.2878 5.19369 7.85197 -10.878 -4.19276
3 2 6.26986 4.89403 5.98181 -10.4838 22.1653 -8.52657
ITEM: TIMESTEP
95200
ITEM: NUMBER OF ATOMS
6
ITEM: BOX BOUNDS pp pp pp
0.0000000000000000e+00 1.0000000000000000e+01
0.0000000000000000e+00 1.0000000000000000e+01
0.0000000000000000e+00 1.0000000000000000e+01
ITEM: ATOMS id type x y z vx vy vz
1 1 4.69491 5.5077 5.31287 11.1772 5.13291 4.87888
6 2 4.36371 5.44433 6.46131 33.3315 14.2919 -22.0304
5 2 4.57789 6.48723 4.84821 3.74683 2.38842 -23.7921
4 2 5.53765 3.48623 5.07536 -5.51626 53.7079 -3.85452
2 1 5.29005 4.47578 4.68343 -10.4762 -8.09879 2.03616
3 2 5.70236 4.77875 3.66105 -39.9156 -35.0466 -32.7231
ITEM: TIMESTEP
95300
ITEM: NUMBER OF ATOMS
6
ITEM: BOX BOUNDS pp pp pp
0.0000000000000000e+00 1.0000000000000000e+01
0.0000000000000000e+00 1.0000000000000000e+01
0.0000000000000000e+00 1.0000000000000000e+01