LAMMPS data file via write_data, version 2 Aug 2023, timestep = 130000, units = metal

6 atoms
2 atom types

0 10 xlo xhi
0 10 ylo yhi
0 10 zlo zhi

Masses

1 12.0107
2 1.00794

Atoms # atomic

6 2 6.452262902607684 4.644572608321531 4.654185072874939 0 0 0
1 1 5.421291383976552 5.006640617122267 4.469968696521656 0 0 0
5 2 5.263437657293728 5.574443362552603 3.5170939074846843 0 0 0
4 2 4.957118041981036 4.559834931138804 6.422568077072294 0 0 0
2 1 4.5591910057863485 4.989880642566707 5.500917094925851 0 0 0
3 2 3.5622083416617873 5.262184451959173 5.754921316662406 0 0 0

Velocities

6 9.030194741383898 -64.30126681699755 -4.320070576682404
1 -11.21856450479649 -6.313477063758716 -4.639662530042463
5 -13.337501261899488 9.23414209488766 -17.10636435562059
4 -21.822777308960468 -3.7873248417011354 7.727708162502138
2 12.52001476926861 7.682877580197135 6.629141761670217
3 10.621890195439377 42.53655486492886 -10.008079396554248
