LAMMPS data file via write_data, version 2 Aug 2023, timestep = 69555, units = metal

6 atoms
2 atom types

0 10 xlo xhi
0 10 ylo yhi
0 10 zlo zhi

Masses

1 12.0107
2 1.00794

Atoms # atomic

1 1 4.93381560801145 5.619681820699783 5.256796137553629 0 0 0
5 2 5.037574988615248 5.822383880905182 6.354626207052939 0 0 0
6 2 4.737191642714976 6.514541329811016 4.6279801229074735 0 0 0
3 2 5.236667708121952 3.463853774607726 5.3506147265813615 0 0 0
4 2 4.972110135882062 4.152568098091479 3.6474215371878804 0 0 0
2 1 5.067765185130079 4.3841995112719365 4.744976826167856 0 0 0

Velocities

1 3.369980523825323 0.46409906868723505 -1.2773398276573031
5 20.12280624330028 0.7393778505100692 2.805637463176975
6 -1.6802595493122505 -2.7226114013976273 -10.028989973984178
3 -1.0279493559782327 -2.4735997230181894 7.727879206627047
4 -22.71687828781369 -3.9700260086844166 -3.674230732881017
2 -2.9250121988693762 0.24308440482327728 1.5433419330396096
