ITEM: TIMESTEP
93000
ITEM: NUMBER OF ATOMS
6
ITEM: BOX BOUNDS pp pp pp
0.0000000000000000e+00 1.0000000000000000e+01
0.0000000000000000e+00 1.0000000000000000e+01
0.0000000000000000e+00 1.0000000000000000e+01
ITEM: ATOMS id type x y z vx vy vz
1 1 5.41843 5.51169 4.89397 5.41694 -2.29306 -4.48357
5 2 5.09052 6.59237 4.73032 31.4012 13.3023 -12.4887
4 2 4.93858 3.46068 5.29485 30.5498 -29.2402 -5.94291
3 2 3.44323 4.60042 5.29616 -0.503513 7.7958 27.293
2 1 4.58159 4.482 5.0778 -9.65397 5.74677 7.93401
6 2 6.52985 5.4213 5.01687 -10.9587 -33.0126 -49.9771
ITEM: TIMESTEP
93100
ITEM: NUMBER OF ATOMS
6
ITEM: BOX BOUNDS pp pp pp
0.0000000000000000e+00 1.0000000000000000e+01
0.0000000000000000e+00 1.0000000000000000e+01
0.0000000000000000e+00 1.0000000000000000e+01
ITEM: ATOMS id type x y z vx vy vz
1 1 5.28192 4.83293 4.41638 -5.41094 -11.1045 -5.28573
5 2 6.23643 4.38238 4.276 -43.1664 -28.1987 26.1232
4 2 3.69253 5.72738 5.676 33.4544 10.1136 24.5523
3 2 5.23162 5.02261 6.54678 46.3873 -2.92242 4.60235
2 1 4.72558 5.1634 5.58601 1.05354 10.5358 0.898643
6 2 4.7525 4.91085 3.47465 15.2478 27.7846 -3.00088
ITEM: TIMESTEP
93200
ITEM: NUMBER OF ATOMS
6
ITEM: BOX BOUNDS pp pp pp
0.0000000000000000e+00 1.0000000000000000e+01
0.0000000000000000e+00 1.0000000000000000e+01
0.0000000000000000e+00 1.0000000000000000e+01
ITEM: ATOMS id type x y z vx vy vz
1 1 4.46996 4.68989 4.74329 -2.26391 2.06178 7.38078
5 2 3.6236 4.70298 5.4074 -29.7702 68.7637 15.028
4 2 6.50498 5.45927 4.80587 19.5058 -12.5506 -16.5684
3 2 5.48542 5.74501 6.28727 19.2359 -10.7593 -49.2189
2 1 5.53959 5.29323 5.2335 2.10504 -3.78572 -3.09182
6 2 4.27464 4.29351 3.77787 -7.0784 -24.9112 -0.348189
ITEM: TIMESTEP
93300
ITEM: NUMBER OF ATOMS
6
ITEM: BOX BOUNDS pp pp pp
0.0000000000000000e+00 1.0000000000000000e+01
0.0000000000000000e+00 1.0000000000000000e+01
0.0000000000000000e+00 1.0000000000000000e+01
ITEM: ATOMS id type x y z vx vy vz
1 1 4.52699 5.35754 5.31885 11.9908 3.19876 -1.32626
5 2 3.73093 6.02807 4.83358 -10.8255 1.28844 5.3944
4 2 5.99917 3.87116 5.22686 -33.3006 34.8991 -8.90181
3 2 5.67112 4.58699 3.64141 -7.06865 -27.2235 -16.5502
2 1 5.47946 4.66491 4.66933 -10.8597 -6.77736 1.48808
6 2 4.52441 5.24586 6.44088 37.716 33.6789 18.1294
ITEM: TIMESTEP
93400
ITEM: NUMBER OF ATOMS
6
ITEM: BOX BOUNDS pp pp pp
0.0000000000000000e+00 1.0000000000000000e+01
0.0000000000000000e+00 1.0000000000000000e+01
0.0000000000000000e+00 1.0000000000000000e+01
ITEM: ATOMS id type x y z vx vy vz
1 1 5.29518 5.61297 5.03838 6.67747 -5.22395 -5.50987
5 2 5.31147 6.26966 5.90806 40.7903 -28.0711 -20.0979
4 2 4.8 3.79172 4.10711 -22.0393 -28.6418 -12.6741
3 2 4.05531 3.99334 5.76121 30.9295 49.7351 11.4478
2 1 4.70806 4.38709 4.97546 -7.99599 4.26339 6.46376
6 2 5.79705 5.94412 4.06054 -33.969 18.4239 9.9574
ITEM: TIMESTEP
93500
ITEM: NUMBER OF ATOMS
6
ITEM: BOX BOUNDS pp pp pp
0.0000000000000000e+00 1.0000000000000000e+01
0.0000000000000000e+00 1.0000000000000000e+01
0.0000000000000000e+00 1.0000000000000000e+01
ITEM: ATOMS id type x y z vx vy vz
1 1 5.35459 4.96152 4.42555 -3.89169 -8.60135 0.1417
5 2 5.51252 3.91112 4.10186 -46.6768 0.707775 -22.636
4 2 4.30744 6.00617 5.99774 36.8106 1.03942 -7.48956
3 2 4.53102 4.09584 6.07162 -32.1825 -25.6026 22.381
2 1 4.64306 5.06525 5.58045 8.66474 11.0509 0.381021
6 2 5.67944 5.66751 3.75914 -14.8273 -5.33346 1.51572
ITEM: TIMESTEP
93600
ITEM: NUMBER OF ATOMS
6
ITEM: BOX BOUNDS pp pp pp
0.0000000000000000e+00 1.0000000000000000e+01
0.0000000000000000e+00 1.0000000000000000e+01
0.0000000000000000e+00 1.0000000000000000e+01
ITEM: ATOMS id type x y z vx vy vz
1 1 4.58273 4.61151 4.61607 -4.57786 1.64698 9.11598
5 2 3.82559 4.99962 4.00236 -16.3159 18.109 4.60267
4 2 6.27139 4.82754 5.83421 5.19892 -28.7891 30.4532
3 2 5.31473 6.50079 5.5271 40.8624 -8.1714 -16.9314
2 1 5.40564 5.40278 5.36666 3.29395 -0.42171 -12.8126
6 2 4.72931 3.50143 4.84389 -14.4462 4.25107 25.9248
ITEM: TIMESTEP
93700
ITEM: NUMBER OF ATOMS
6
ITEM: BOX BOUNDS pp pp pp
0.0000000000000000e+00 1.0000000000000000e+01
0.0000000000000000e+00 1.0000000000000000e+01
0.0000000000000000e+00 1.0000000000000000e+01
ITEM: ATOMS id type x y z vx vy vz
1 1 4.40737 5.24123 5.25343 2.18173 5.16874 6.18679
5 2 3.46029 4.64815 4.96887 21.9566 19.6426 10.2177
4 2 6.5713 5.29295 4.93151 -15.5484 -3.42324 -41.0023
3 2 5.5719 3.82143 4.09578 -48.5153 -32.4002 19.1947
2 1 5.59357 4.76005 4.77575 2.15314 -6.5913 -3.64687
6 2 4.38779 6.22181 5.65798 -9.5476 33.1322 -18.676
ITEM: TIMESTEP
93800
ITEM: NUMBER OF ATOMS
6
ITEM: BOX BOUNDS pp pp pp
0.0000000000000000e+00 1.0000000000000000e+01
0.0000000000000000e+00 1.0000000000000000e+01
0.0000000000000000e+00 1.0000000000000000e+01
ITEM: ATOMS id type x y z vx vy vz
1 1 5.19343 5.61666 5.14761 9.62917 6.055 -6.5852
5 2 6.07557 5.73367 5.64767 23.4531 -1.93133 -6.66447
4 2 3.94516 4.1581 4.20158 -38.8405 25.157 44.7376
3 2 5.40012 3.63789 5.32519 -1.2697 16.9262 -20.7125
2 1 4.78626 4.37467 4.86039 -9.078 -6.92405 5.18611
6 2 4.82366 6.57324 4.73205 10.0893 -29.7962 -0.688977
ITEM: TIMESTEP
93900
ITEM: NUMBER OF ATOMS
6
ITEM: BOX BOUNDS pp pp pp
0.0000000000000000e+00 1.0000000000000000e+01
0.0000000000000000e+00 1.0000000000000000e+01
0.0000000000000000e+00 1.0000000000000000e+01
ITEM: ATOMS id type x y z vx vy vz
1 1 5.43882 5.08996 4.52691 -3.82479 -9.63077 -10.2496
5 2 5.22895 5.19535 3.45004 -17.7282 -13.1611 5.70317
4 2 4.89218 5.11644 6.47676 30.4034 -35.0256 10.175
3 2 3.49652 4.71189 5.32113 -7.28611 34.5481 20.6026
2 1 4.55915 4.87834 5.46973 -0.15659 11.664 5.45778
6 2 6.40901 5.35357 4.79389 42.0534 -10.59 20.6188
ITEM: TIMESTEP
94000
ITEM: NUMBER OF ATOMS
6
ITEM: BOX BOUNDS pp pp pp
0.0000000000000000e+00 1.0000000000000000e+01
0.0000000000000000e+00 1.0000000000000000e+01
0.0000000000000000e+00 1.0000000000000000e+01
ITEM: ATOMS id type x y z vx vy vz
1 1 4.70246 4.61605 4.55437 -10.625 -1.90508 8.30725
5 2 4.91824 4.80559 3.48329 18.4749 14.9922 -36.5896
6 2 3.85486 3.86273 4.81309 -26.6 -2.4781 -2.77326
4 2 5.08566 5.35181 6.51645 13.3392 36.2048 -8.44626
3 2 6.16489 6.03715 5.17975 38.7598 -49.6892 -33.8649
2 1 5.29576 5.37911 5.44641 6.93472 1.98651 -1.45316
ITEM: TIMESTEP
94100
ITEM: NUMBER OF ATOMS
6
ITEM: BOX BOUNDS pp pp pp
0.0000000000000000e+00 1.0000000000000000e+01
0.0000000000000000e+00 1.0000000000000000e+01
0.0000000000000000e+00 1.0000000000000000e+01
ITEM: ATOMS id type x y z vx vy vz
1 1 4.37816 5.06127 5.17453 -0.180477 8.28107 7.75122
5 2 3.8544 4.40361 6.06574 3.76441 21.6009 12.8021
6 2 3.74262 5.90509 4.91077 6.16208 25.2786 0.0256077
4 2 6.04844 5.51085 3.96018 -16.2851 -22.8981 -24.94
3 2 6.25902 4.2821 5.3644 7.56826 28.0789 8.58819
2 1 5.63007 4.93017 4.80036 0.0789626 -12.65 -7.45548
ITEM: TIMESTEP
94200
ITEM: NUMBER OF ATOMS
6
ITEM: BOX BOUNDS pp pp pp
0.0000000000000000e+00 1.0000000000000000e+01
0.0000000000000000e+00 1.0000000000000000e+01
0.0000000000000000e+00 1.0000000000000000e+01
ITEM: ATOMS id type x y z vx vy vz
1 1 5.06412 5.62054 5.19414 9.54652 3.66955 -1.47238
5 2 5.83324 6.33465 5.02088 -19.8709 -22.974 -35.0818
6 2 4.1179 6.03059 5.74645 43.8186 -9.63779 -4.71067
4 2 4.15168 3.81247 5.19958 12.7889 -16.4123 27.43
3 2 5.60223 3.79644 4.09513 -30.6415 -18.3117 -10.7006
2 1 4.96084 4.38159 4.80081 -10.058 1.98128 3.40784
ITEM: TIMESTEP
94300
ITEM: NUMBER OF ATOMS
6
ITEM: BOX BOUNDS pp pp pp
0.0000000000000000e+00 1.0000000000000000e+01
0.0000000000000000e+00 1.0000000000000000e+01
0.0000000000000000e+00 1.0000000000000000e+01
ITEM: ATOMS id type x y z vx vy vz
1 1 5.5128 5.18388 4.61281 -3.28969 -13.1362 -5.52388
5 2 5.28458 5.8765 3.76036 16.6459 16.7241 14.0255
6 2 6.38558 4.68132 4.58187 -30.5712 3.21309 -36.2294
4 2 4.53032 3.92847 6.07944 -6.99276 16.0281 18.6113
3 2 3.58932 5.36973 5.51287 19.9537 30.0852 18.7672
2 1 4.50504 4.82817 5.39283 3.37061 7.59325 4.25043
ITEM: TIMESTEP
94400
ITEM: NUMBER OF ATOMS
6
ITEM: BOX BOUNDS pp pp pp
0.0000000000000000e+00 1.0000000000000000e+01
0.0000000000000000e+00 1.0000000000000000e+01
0.0000000000000000e+00 1.0000000000000000e+01
ITEM: ATOMS id type x y z vx vy vz
1 1 4.8638 4.63367 4.46185 -4.72913 -1.34801 7.92359
5 2 5.53264 4.0355 3.96569 -47.7327 -52.1878 -3.01186
6 2 3.85072 4.57182 3.96041 -30.5772 28.5538 -11.8227
4 2 4.44668 6.06428 5.9432 7.867 1.294 -4.30459
3 2 6.15434 5.26961 5.99112 -4.52858 -1.35232 28.9913
2 1 5.13771 5.37123 5.55002 11.0207 3.33626 -8.75038
ITEM: TIMESTEP
94500
ITEM: NUMBER OF ATOMS
6
ITEM: BOX BOUNDS pp pp pp
0.0000000000000000e+00 1.0000000000000000e+01
0.0000000000000000e+00 1.0000000000000000e+01
0.0000000000000000e+00 1.0000000000000000e+01
ITEM: ATOMS id type x y z vx vy vz
1 1 4.3354 5.006 5.09668 4.11691 8.64858 3.03326
5 2 3.77345 5.19204 6.11543 4.61885 43.5927 16.2391
6 2 3.76121 4.71812 4.26796 -9.66325 -25.6759 26.2306
4 2 6.0692 4.65032 3.91855 17.95 -33.4112 -0.518688
3 2 6.4569 5.02075 5.64695 20.1009 -14.5573 -24.3301
2 1 5.65971 5.0291 4.90776 -6.88682 -6.12662 -4.51201
ITEM: TIMESTEP
94600
ITEM: NUMBER OF ATOMS
6
ITEM: BOX BOUNDS pp pp pp
0.0000000000000000e+00 1.0000000000000000e+01
0.0000000000000000e+00 1.0000000000000000e+01
0.0000000000000000e+00 1.0000000000000000e+01
ITEM: ATOMS id type x y z vx vy vz
1 1 4.88791 5.60068 5.3106 12.404 -1.08345 -4.48092
5 2 4.74985 6.37334 4.63168 -23.7344 -4.15423 13.8954
6 2 5.12557 5.82783 6.43044 40.7855 27.806 -25.0824
4 2 5.40727 3.44523 5.14103 -14.2192 20.6695 -11.3259
3 2 4.97654 4.32004 3.57487 -9.55456 -3.98675 16.5006
2 1 5.09054 4.4021 4.70818 -11.8399 -2.30142 4.98546
ITEM: TIMESTEP
94700
ITEM: NUMBER OF ATOMS
6
ITEM: BOX BOUNDS pp pp pp
0.0000000000000000e+00 1.0000000000000000e+01
0.0000000000000000e+00 1.0000000000000000e+01
0.0000000000000000e+00 1.0000000000000000e+01
ITEM: ATOMS id type x y z vx vy vz
1 1 5.49049 5.35254 4.65872 2.92245 -7.55692 -2.02196
5 2 5.9808 6.27893 5.13141 37.0497 -13.5169 -24.6511
6 2 5.8593 5.05368 3.73402 -49.5243 1.21278 -36.2119
4 2 4.15898 3.6753 4.95797 -9.0259 20.7405 -7.33768
3 2 4.24197 4.97699 6.29467 12.1559 -8.95372 -21.7138
2 1 4.48949 4.6487 5.33153 -2.13825 7.60033 9.5676
ITEM: TIMESTEP
94800
ITEM: NUMBER OF ATOMS
6
ITEM: BOX BOUNDS pp pp pp
0.0000000000000000e+00 1.0000000000000000e+01
0.0000000000000000e+00 1.0000000000000000e+01
0.0000000000000000e+00 1.0000000000000000e+01
ITEM: ATOMS id type x y z vx vy vz
1 1 4.98786 4.63221 4.42671 -11.1207 -3.20635 -0.498002
5 2 4.78901 3.5823 4.342 -44.3851 -29.0667 25.1464
6 2 5.04904 5.25537 3.44039 27.4626 2.05367 -5.2203
4 2 5.0006 6.38146 5.50511 31.8879 11.5493 2.39521
3 2 5.13964 4.93866 6.59208 16.6001 -6.95751 27.6889
2 1 5.01417 5.35451 5.58355 8.4717 5.08794 -3.69886
ITEM: TIMESTEP
94900
ITEM: NUMBER OF ATOMS
6
ITEM: BOX BOUNDS pp pp pp
0.0000000000000000e+00 1.0000000000000000e+01
0.0000000000000000e+00 1.0000000000000000e+01
0.0000000000000000e+00 1.0000000000000000e+01
ITEM: ATOMS id type x y z vx vy vz
1 1 4.34808 4.82461 4.96421 -3.88436 5.60177 10.7694
5 2 3.67402 5.78129 4.72712 30.5564 4.89653 -23.2818
6 2 3.90317 3.83623 5.0773 -20.3375 16.0518 23.3469
4 2 6.56685 4.46633 5.19092 27.3072 -29.7296 3.54191
3 2 5.94482 6.17998 5.01693 -4.33997 -4.54709 -35.9479
2 1 5.64467 5.15321 5.03492 1.09938 -4.48325 -8.05535
ITEM: TIMESTEP
95000
ITEM: NUMBER OF ATOMS
6
ITEM: BOX BOUNDS pp pp pp
0.0000000000000000e+00 1.0000000000000000e+01
0.0000000000000000e+00 1.0000000000000000e+01
0.0000000000000000e+00 1.0000000000000000e+01
ITEM: ATOMS id type x y z vx vy vz
3 2 4.52414 3.60076 4.30026 -23.1458 -23.7146 30.1608
4 2 6.29508 4.19605 4.72695 -21.5678 35.1574 -16.4593
2 1 5.24168 4.45539 4.68365 -6.16609 -7.14415 0.390736
1 1 4.7569 5.55276 5.30427 5.23814 6.34269 -0.527608
5 2 3.73696 5.74928 5.50538 49.2168 21.9469 19.8207
6 2 5.46323 6.35634 5.61324 6.55434 -23.8395 -31.8912
ITEM: TIMESTEP
95100
ITEM: NUMBER OF ATOMS
6
ITEM: BOX BOUNDS pp pp pp
0.0000000000000000e+00 1.0000000000000000e+01
0.0000000000000000e+00 1.0000000000000000e+01
0.0000000000000000e+00 1.0000000000000000e+01
ITEM: ATOMS id type x y z vx vy vz
3 2 4.58541 3.83444 5.95704 21.4602 17.4862 -27.1472
4 2 3.5229 4.69606 4.6543 -17.8453 21.4458 28.1344
2 1 4.53825 4.55256 5.18355 -5.54971 6.57154 10.3041
1 1 5.47875 5.42963 4.82241 3.36216 -8.80925 -10.0915
5 2 6.50241 5.48315 5.09515 24.9791 -20.5519 -6.86078
6 2 5.18906 6.19817 4.22434 -2.52688 8.2847 3.33969
ITEM: TIMESTEP
95200
ITEM: NUMBER OF ATOMS
6
ITEM: BOX BOUNDS pp pp pp
0.0000000000000000e+00 1.0000000000000000e+01
0.0000000000000000e+00 1.0000000000000000e+01
0.0000000000000000e+00 1.0000000000000000e+01
ITEM: ATOMS id type x y z vx vy vz
3 2 3.78039 5.18354 5.95957 1.8647 56.4327 -2.2268
4 2 5.54589 5.53623 6.32357 0.978597 -28.235 -9.3611
2 1 4.86891 5.25171 5.59759 10.2232 3.67026 -4.51977
1 1 5.15136 4.76029 4.40312 -10.4833 -6.4911 6.78346
5 2 4.27723 4.46448 3.82021 -29.8593 14.8372 6.85077
6 2 6.15747 4.67232 3.89005 30.1154 -9.42151 -22.2372
ITEM: TIMESTEP
95300
ITEM: NUMBER OF ATOMS
6
ITEM: BOX BOUNDS pp pp pp
0.0000000000000000e+00 1.0000000000000000e+01
0.0000000000000000e+00 1.0000000000000000e+01
0.0000000000000000e+00 1.0000000000000000e+01
ITEM: ATOMS id type x y z vx vy vz
3 2 6.21546 5.61968 4.35279 26.4609 -39.5335 -3.34803
4 2 6.07352 5.26454 6.1593 -28.8621 19.7286 0.606589
2 1 5.61247 5.24682 5.11655 -0.816393 -9.86176 -10.8211
1 1 4.38992 4.74289 4.87761 2.13144 9.59626 10.5409
5 2 3.94658 4.85565 3.81292 -33.5654 -5.66627 3.97537
6 2 3.73834 4.38226 5.74651 20.2963 28.6348 2.10523
ITEM: TIMESTEP
95400
ITEM: NUMBER OF ATOMS
6
ITEM: BOX BOUNDS pp pp pp
0.0000000000000000e+00 1.0000000000000000e+01
0.0000000000000000e+00 1.0000000000000000e+01
0.0000000000000000e+00 1.0000000000000000e+01
ITEM: ATOMS id type x y z vx vy vz
3 2 5.59851 3.54986 5.11619 -23.3307 16.8708 16.0149
4 2 5.62595 4.82985 3.66501 -36.3714 -35.9742 -19.6202
2 1 5.39415 4.55605 4.65951 -7.64102 -5.10102 -0.602878
1 1 4.63372 5.44397 5.35045 12.211 4.56887 4.10648
5 2 4.08666 5.23671 6.29164 34.5858 20.6455 -40.5341
6 2 4.35925 6.383 4.8104 -29.3396 4.79907 2.3901
ITEM: TIMESTEP
95500
ITEM: NUMBER OF ATOMS
6
ITEM: BOX BOUNDS pp pp pp
0.0000000000000000e+00 1.0000000000000000e+01
0.0000000000000000e+00 1.0000000000000000e+01
0.0000000000000000e+00 1.0000000000000000e+01
ITEM: ATOMS id type x y z vx vy vz
3 2 4.96891 3.63891 4.5183 -29.5096 -20.9904 -14.444
4 2 3.75238 4.40406 5.79314 22.8744 -9.3057 27.9062
2 1 4.58458 4.46504 5.0949 -5.62034 8.19843 8.0434
1 1 5.39923 5.54313 4.92335 4.39088 0.803805 -7.12652
5 2 6.21844 5.29926 4.24157 6.37818 -31.9739 -32.3141
6 2 5.2557 6.55998 5.23137 14.9073 -45.0013 7.92629
ITEM: TIMESTEP
95600
ITEM: NUMBER OF ATOMS
6
ITEM: BOX BOUNDS pp pp pp
0.0000000000000000e+00 1.0000000000000000e+01
0.0000000000000000e+00 1.0000000000000000e+01
0.0000000000000000e+00 1.0000000000000000e+01
ITEM: ATOMS id type x y z vx vy vz
3 2 4.18443 6.11215 5.76998 13.5288 18.9516 12.179
4 2 4.97711 4.55414 6.47671 -11.8688 -41.334 3.58551
2 1 4.71351 5.18508 5.58029 10.4609 12.0068 2.52733
1 1 5.26417 4.81075 4.39617 -8.84463 -3.57221 -5.60749
5 2 5.09648 5.41655 3.55128 -6.56879 -33.0751 5.60024
6 2 6.0104 3.96635 4.48445 -14.3506 -45.0493 15.3386
ITEM: TIMESTEP
95700
ITEM: NUMBER OF ATOMS
6
ITEM: BOX BOUNDS pp pp pp
0.0000000000000000e+00 1.0000000000000000e+01
0.0000000000000000e+00 1.0000000000000000e+01
0.0000000000000000e+00 1.0000000000000000e+01
ITEM: ATOMS id type x y z vx vy vz
3 2 6.53607 4.76841 5.32854 -10.7068 -43.185 -16.8177
4 2 5.39845 6.29736 5.76651 24.7391 13.5335 -21.3422
2 1 5.52171 5.33881 5.25457 11.7232 1.60477 -4.3716
1 1 4.47037 4.67572 4.74221 -13.5968 2.9777 7.8578
5 2 4.67303 3.72251 4.14186 -1.76186 -18.3862 27.2607
6 2 3.48931 5.0382 4.8033 10.0549 -6.56741 -30.6426
ITEM: TIMESTEP
95800
ITEM: NUMBER OF ATOMS
6
ITEM: BOX BOUNDS pp pp pp
0.0000000000000000e+00 1.0000000000000000e+01
0.0000000000000000e+00 1.0000000000000000e+01
0.0000000000000000e+00 1.0000000000000000e+01
ITEM: ATOMS id type x y z vx vy vz
3 2 6.37907 4.57094 5.20316 -1.52183 -7.69076 -25.2254
4 2 5.32891 4.15267 3.66475 -7.16686 3.58529 24.4811
2 1 5.45081 4.63658 4.68063 -3.98723 -13.4158 -3.90863
1 1 4.54536 5.34497 5.3195 2.4635 12.0542 5.36893
5 2 4.74879 5.75208 6.22931 40.1876 33.655 -24.3379
6 2 3.59133 5.74371 4.90305 -13.342 -13.3249 7.68114
ITEM: TIMESTEP
95900
ITEM: NUMBER OF ATOMS
6
ITEM: BOX BOUNDS pp pp pp
0.0000000000000000e+00 1.0000000000000000e+01
0.0000000000000000e+00 1.0000000000000000e+01
0.0000000000000000e+00 1.0000000000000000e+01
ITEM: ATOMS id type x y z vx vy vz
3 2 4.131 3.97211 4.13029 -3.16074 3.85904 41.5388
4 2 4.65788 3.84411 5.81215 -1.93895 -13.9778 9.50876
2 1 4.69222 4.4288 4.94857 -10.5645 5.0475 6.01048
1 1 5.3219 5.56904 5.0332 7.91341 -4.83669 -10.5553
5 2 5.32903 6.41949 4.29224 -13.8975 24.3891 -10.4163
6 2 5.71636 5.7896 5.98444 50.588 -16.7824 13.5254
ITEM: TIMESTEP
96000
ITEM: NUMBER OF ATOMS
6
ITEM: BOX BOUNDS pp pp pp
0.0000000000000000e+00 1.0000000000000000e+01
0.0000000000000000e+00 1.0000000000000000e+01
0.0000000000000000e+00 1.0000000000000000e+01
ITEM: ATOMS id type x y z vx vy vz
1 1 5.35615 4.93583 4.43377 -11.0396 -7.67234 0.476953
6 2 5.08733 4.06717 3.67906 -14.4276 9.45763 -33.3134
5 2 6.03043 5.76382 4.11719 38.4688 -15.8343 7.6137
4 2 3.99087 4.27385 5.92119 7.46152 42.1941 24.2717
3 2 4.72455 5.87073 6.29063 38.7541 36.167 17.8949
2 1 4.65806 5.06618 5.56571 5.14363 1.63139 -1.85886
ITEM: TIMESTEP
96100
ITEM: NUMBER OF ATOMS
6
ITEM: BOX BOUNDS pp pp pp
0.0000000000000000e+00 1.0000000000000000e+01
0.0000000000000000e+00 1.0000000000000000e+01
0.0000000000000000e+00 1.0000000000000000e+01
ITEM: ATOMS id type x y z vx vy vz
1 1 4.57107 4.62913 4.65058 -6.81646 3.22145 8.03043
6 2 4.02322 4.88846 3.73395 3.63854 -14.1341 19.4409
5 2 4.27594 3.58488 5.05736 -45.2197 40.8366 -9.17497
4 2 5.72343 6.4339 5.08106 4.96299 13.6657 -31.2125
3 2 5.81286 4.90419 6.24759 -8.27757 45.1624 -7.78487
2 1 5.44295 5.38666 5.33951 10.5841 -10.3992 -5.61929
ITEM: TIMESTEP
96200
ITEM: NUMBER OF ATOMS
6
ITEM: BOX BOUNDS pp pp pp
0.0000000000000000e+00 1.0000000000000000e+01
0.0000000000000000e+00 1.0000000000000000e+01
0.0000000000000000e+00 1.0000000000000000e+01
ITEM: ATOMS id type x y z vx vy vz
1 1 4.4126 5.24012 5.25127 5.03647 6.52268 3.1211
6 2 3.77691 4.4842 5.65097 24.4212 28.8366 29.0668
5 2 4.00064 6.20753 5.28739 12.2356 -1.07101 -12.6185
4 2 5.64731 3.72892 4.75415 13.0844 21.0865 13.9571
3 2 6.49074 5.39192 4.51764 21.8912 -12.66 -37.9294
2 1 5.59469 4.77557 4.73125 -11.0479 -9.55993 -2.48968
ITEM: TIMESTEP
96300
ITEM: NUMBER OF ATOMS
6
ITEM: BOX BOUNDS pp pp pp
0.0000000000000000e+00 1.0000000000000000e+01
0.0000000000000000e+00 1.0000000000000000e+01
0.0000000000000000e+00 1.0000000000000000e+01
ITEM: ATOMS id type x y z vx vy vz
1 1 5.2202 5.65735 5.13676 7.35108 -3.59354 -7.45991
6 2 6.28253 5.94274 5.06992 16.9668 5.70384 -31.6362
5 2 4.39351 6.3603 5.17476 -8.89003 -4.17472 9.56679
4 2 5.47376 3.42698 4.77374 -7.70389 -44.126 -29.2196
3 2 3.76551 4.14072 4.68653 -5.5864 20.1332 31.3996
2 1 4.78711 4.35346 4.88816 -6.91356 5.47869 9.12903
ITEM: TIMESTEP
96400
ITEM: NUMBER OF ATOMS
6
ITEM: BOX BOUNDS pp pp pp
0.0000000000000000e+00 1.0000000000000000e+01
0.0000000000000000e+00 1.0000000000000000e+01
0.0000000000000000e+00 1.0000000000000000e+01
ITEM: ATOMS id type x y z vx vy vz
1 1 5.45986 5.06943 4.49421 -0.0655567 -10.3557 -7.26279
6 2 5.25898 5.53256 3.52381 -13.7475 0.55001 -8.30087
5 2 6.49673 4.68825 4.67743 -8.01934 -7.79112 -26.7127
4 2 3.43118 5.10872 5.4191 19.7824 53.6156 -6.20261
3 2 4.89659 4.36263 6.46779 10.1318 -31.5022 23.538
2 1 4.53334 4.95637 5.49855 -0.618175 9.10758 8.74635
ITEM: TIMESTEP
96500
ITEM: NUMBER OF ATOMS
6
ITEM: BOX BOUNDS pp pp pp
0.0000000000000000e+00 1.0000000000000000e+01
0.0000000000000000e+00 1.0000000000000000e+01
0.0000000000000000e+00 1.0000000000000000e+01
ITEM: ATOMS id type x y z vx vy vz
1 1 4.696 4.61222 4.53971 -7.7322 -0.0346679 -0.706133
6 2 5.31447 4.23973 3.73806 -13.7999 -21.2084 32.0966
5 2 3.67648 4.48039 4.32247 -26.6994 8.76379 19.3466
4 2 6.42604 5.55226 5.30992 19.519 -38.8878 -3.13682
3 2 4.78532 5.86282 6.3884 25.3357 12.7397 -48.1852
2 1 5.28723 5.3764 5.48068 7.36669 3.27338 0.69597
ITEM: TIMESTEP
96600
ITEM: NUMBER OF ATOMS
6
ITEM: BOX BOUNDS pp pp pp
0.0000000000000000e+00 1.0000000000000000e+01
0.0000000000000000e+00 1.0000000000000000e+01
0.0000000000000000e+00 1.0000000000000000e+01
ITEM: ATOMS id type x y z vx vy vz
1 1 4.36441 5.11795 5.20396 3.78146 12.2225 4.22009
6 2 3.986 5.02782 6.20772 -15.2504 10.6859 43.762
5 2 3.61417 5.34714 4.42233 16.4491 -11.5964 -14.2591
4 2 6.47293 4.69325 5.47928 -29.1909 22.5124 -50.9514
3 2 5.90918 4.95692 3.76295 -38.8586 -42.4264 -17.9916
2 1 5.63728 4.8799 4.80691 1.82867 -10.4749 -0.910255
ITEM: TIMESTEP
96700
ITEM: NUMBER OF ATOMS
6
ITEM: BOX BOUNDS pp pp pp
0.0000000000000000e+00 1.0000000000000000e+01
0.0000000000000000e+00 1.0000000000000000e+01
0.0000000000000000e+00 1.0000000000000000e+01
ITEM: ATOMS id type x y z vx vy vz
1 1 5.04314 5.61356 5.24039 7.87724 3.65334 -4.22398
6 2 5.26774 6.55056 4.58275 21.3084 -22.2356 -19.2534
5 2 4.87709 5.89685 6.31374 26.4679 15.9812 21.8616
4 2 5.11771 4.15464 3.75817 -43.5685 5.12562 -33.5713
3 2 4.915 3.55664 5.42376 30.9323 18.058 -4.75828
2 1 4.94217 4.37309 4.75318 -10.8262 -5.07405 7.22172
ITEM: TIMESTEP
96800
ITEM: NUMBER OF ATOMS
6
ITEM: BOX BOUNDS pp pp pp
0.0000000000000000e+00 1.0000000000000000e+01
0.0000000000000000e+00 1.0000000000000000e+01
0.0000000000000000e+00 1.0000000000000000e+01
ITEM: ATOMS id type x y z vx vy vz
1 1 5.46051 5.18963 4.5725 -0.0173729 -7.14058 -11.9209
6 2 5.6238 6.2579 4.53097 10.6704 -8.94228 13.9044
5 2 6.14006 4.57767 3.88543 -44.1223 -10.1293 15.7666
4 2 4.11261 5.5774 6.08553 26.6566 7.66528 20.591
3 2 4.09267 3.80223 5.5746 -48.6335 -23.3036 -3.79481
2 1 4.54228 4.79227 5.42123 4.66896 10.0534 8.02139
ITEM: TIMESTEP
96900
ITEM: NUMBER OF ATOMS
6
ITEM: BOX BOUNDS pp pp pp
0.0000000000000000e+00 1.0000000000000000e+01
0.0000000000000000e+00 1.0000000000000000e+01
0.0000000000000000e+00 1.0000000000000000e+01
ITEM: ATOMS id type x y z vx vy vz
1 1 4.85634 4.60163 4.49338 -9.47975 -5.11423 8.58673
6 2 5.23431 3.58576 4.39665 -38.0093 17.8286 1.73258
5 2 4.2339 4.9643 3.74832 5.17767 18.9784 -13.81
4 2 5.50226 5.06678 6.49954 14.1081 -7.56267 12.3284
3 2 4.85501 6.50624 5.55285 37.6077 -7.04152 -31.2687
2 1 5.15851 5.38801 5.49021 7.89498 3.25095 -5.98372
ITEM: TIMESTEP
97000
ITEM: NUMBER OF ATOMS
6
ITEM: BOX BOUNDS pp pp pp
0.0000000000000000e+00 1.0000000000000000e+01
0.0000000000000000e+00 1.0000000000000000e+01
0.0000000000000000e+00 1.0000000000000000e+01
ITEM: ATOMS id type x y z vx vy vz
5 2 3.67815 4.19798 4.63984 -18.6215 5.32442 64.6303
3 2 6.1695 4.16053 4.56222 17.2621 -18.174 8.71657
2 1 5.6519 5.01988 4.9287 -2.21137 -6.96571 -4.88504
1 1 4.36168 4.98034 5.07457 4.15789 4.63757 -0.0707547
6 2 3.75166 5.74932 5.51641 6.79547 58.2544 13.8208
4 2 6.24139 5.88914 5.24438 -28.631 -17.6625 -28.114
ITEM: TIMESTEP
97100
ITEM: NUMBER OF ATOMS
6
ITEM: BOX BOUNDS pp pp pp
0.0000000000000000e+00 1.0000000000000000e+01
0.0000000000000000e+00 1.0000000000000000e+01
0.0000000000000000e+00 1.0000000000000000e+01
ITEM: ATOMS id type x y z vx vy vz
5 2 5.5195 5.94173 6.11005 44.5441 4.73205 -3.20293
3 2 5.78777 3.61614 5.00274 -21.6297 -4.96275 -11.2292
2 1 5.06674 4.41746 4.7291 -9.14408 4.14559 8.94125
1 1 4.9645 5.60344 5.25776 8.45826 0.98001 -10.592
6 2 4.01167 6.17042 5.01957 14.2227 -23.0267 34.2281
4 2 4.31124 4.02226 4.02596 -28.9649 -37.8197 -0.125004
ITEM: TIMESTEP
97200
ITEM: NUMBER OF ATOMS
6
ITEM: BOX BOUNDS pp pp pp
0.0000000000000000e+00 1.0000000000000000e+01
0.0000000000000000e+00 1.0000000000000000e+01
0.0000000000000000e+00 1.0000000000000000e+01
ITEM: ATOMS id type x y z vx vy vz
5 2 5.32125 5.54191 3.65748 2.28849 7.50569 17.0927
3 2 3.62896 4.37937 4.70123 -9.36361 15.1893 17.0814
2 1 4.5079 4.68945 5.29869 4.32359 10.3925 5.85232
1 1 5.50261 5.33438 4.71394 -8.78698 -11.193 -4.06728
6 2 6.40747 5.62583 5.1828 56.3279 -33.2718 -29.4254
4 2 4.51956 4.16851 6.30992 3.93337 20.1161 -26.0193
ITEM: TIMESTEP
97300
ITEM: NUMBER OF ATOMS
6
ITEM: BOX BOUNDS pp pp pp
0.0000000000000000e+00 1.0000000000000000e+01
0.0000000000000000e+00 1.0000000000000000e+01
0.0000000000000000e+00 1.0000000000000000e+01
ITEM: ATOMS id type x y z vx vy vz
5 2 5.71392 4.90732 3.60571 20.2733 -42.9272 -32.193
3 2 5.8128 6.05765 5.72623 -21.2964 -18.2824 -1.46095
2 1 5.0255 5.33196 5.59621 13.5834 0.647794 -4.40754
1 1 4.95668 4.68598 4.40941 -9.85542 -0.26976 7.57839
6 2 4.26308 3.80407 4.2279 -34.7264 34.2157 12.1825
4 2 4.42504 5.0168 6.37503 -8.67357 22.4892 -16.3127
ITEM: TIMESTEP
97400
ITEM: NUMBER OF ATOMS
6
ITEM: BOX BOUNDS pp pp pp
0.0000000000000000e+00 1.0000000000000000e+01
0.0000000000000000e+00 1.0000000000000000e+01
0.0000000000000000e+00 1.0000000000000000e+01
ITEM: ATOMS id type x y z vx vy vz
5 2 3.8657 4.12945 5.77411 15.2824 52.6319 12.8195
3 2 6.33863 4.74722 5.668 27.6338 -36.3105 9.27451
2 1 5.66116 5.13859 4.99407 -1.90783 -5.72206 -8.15958
1 1 4.34317 4.85537 5.01344 -1.69005 8.1041 9.26284
6 2 3.75497 5.26214 4.1474 -16.3607 -27.1136 -18.2731
4 2 5.9915 5.9327 4.32281 16.3172 -17.5923 -16.9675
ITEM: TIMESTEP
97500
ITEM: NUMBER OF ATOMS
6
ITEM: BOX BOUNDS pp pp pp
0.0000000000000000e+00 1.0000000000000000e+01
0.0000000000000000e+00 1.0000000000000000e+01
0.0000000000000000e+00 1.0000000000000000e+01
ITEM: ATOMS id type x y z vx vy vz
5 2 5.15534 6.4685 4.94599 -9.47255 -1.10705 -32.6153
3 2 6.13176 4.71159 3.99548 -16.8522 -1.65788 -31.5425
2 1 5.23958 4.44324 4.70593 -7.07248 -1.62683 4.73781
1 1 4.74749 5.54616 5.30861 6.01463 3.01975 0.676614
6 2 3.94679 5.53261 6.05694 64.7117 24.3963 -0.336851
4 2 4.92261 3.41324 4.83013 -25.7814 -38.2295 -0.0240054
ITEM: TIMESTEP
97600
ITEM: NUMBER OF ATOMS
6
ITEM: BOX BOUNDS pp pp pp
0.0000000000000000e+00 1.0000000000000000e+01
0.0000000000000000e+00 1.0000000000000000e+01
0.0000000000000000e+00 1.0000000000000000e+01
ITEM: ATOMS id type x y z vx vy vz
5 2 5.29494 6.4859 4.82445 33.6086 -5.57321 -4.8217
3 2 3.47664 4.84617 5.41419 -2.00026 9.29549 34.6691
2 1 4.5108 4.57933 5.22884 -0.821201 4.86037 8.55065
1 1 5.47822 5.43584 4.75359 -1.10474 -2.13828 -7.62019
6 2 6.44493 5.03206 4.54265 7.0806 -42.1532 -24.6512
4 2 4.91667 3.45462 5.43002 -15.7393 5.99425 -16.2835
ITEM: TIMESTEP
97700
ITEM: NUMBER OF ATOMS
6
ITEM: BOX BOUNDS pp pp pp
0.0000000000000000e+00 1.0000000000000000e+01
0.0000000000000000e+00 1.0000000000000000e+01
0.0000000000000000e+00 1.0000000000000000e+01
ITEM: ATOMS id type x y z vx vy vz
5 2 5.96989 3.97398 4.22875 -12.9909 -43.263 0.746269
3 2 5.40995 5.06852 6.61563 11.8257 -8.96898 -21.309
2 1 4.85396 5.2659 5.60819 6.05293 7.21938 10.0754
1 1 5.14801 4.72459 4.38759 -8.78416 -5.17174 -5.22472
6 2 4.60303 5.2004 3.5519 1.77829 -8.83361 -21.7368
4 2 3.99618 5.87004 5.65591 31.9325 36.6658 -15.5015
ITEM: TIMESTEP
97800
ITEM: NUMBER OF ATOMS
6
ITEM: BOX BOUNDS pp pp pp
0.0000000000000000e+00 1.0000000000000000e+01
0.0000000000000000e+00 1.0000000000000000e+01
0.0000000000000000e+00 1.0000000000000000e+01
ITEM: ATOMS id type x y z vx vy vz
5 2 3.52735 5.14867 5.35683 13.102 29.5923 0.235416
3 2 5.5568 5.92122 5.91444 2.79827 44.4757 -43.1008
2 1 5.62579 5.22542 5.15684 11.3604 -6.27655 -3.11196
1 1 4.39386 4.77725 4.83393 -9.59335 1.07232 5.12952
6 2 4.08507 3.99186 4.16878 -17.2169 7.37861 17.2221
4 2 6.59911 4.90607 4.67182 -19.7392 -19.4325 1.60184
ITEM: TIMESTEP
97900
ITEM: NUMBER OF ATOMS
6
ITEM: BOX BOUNDS pp pp pp
0.0000000000000000e+00 1.0000000000000000e+01
0.0000000000000000e+00 1.0000000000000000e+01
0.0000000000000000e+00 1.0000000000000000e+01
ITEM: ATOMS id type x y z vx vy vz
5 2 3.80658 5.98996 4.94666 -1.00113 30.8791 0.899818
3 2 5.30827 4.37683 3.5422 -19.5978 -50.7443 26.9757
2 1 5.35047 4.54333 4.66046 -9.27088 -7.39488 -2.97929
1 1 4.64762 5.45363 5.33715 3.8858 8.67299 -1.4176
6 2 4.81098 5.66579 6.40925 54.5782 -9.87099 24.1358
4 2 6.09941 4.00332 5.1321 30.1898 14.5062 0.382346
ITEM: TIMESTEP
98000
ITEM: NUMBER OF ATOMS
6
ITEM: BOX BOUNDS pp pp pp
0.0000000000000000e+00 1.0000000000000000e+01
0.0000000000000000e+00 1.0000000000000000e+01
0.0000000000000000e+00 1.0000000000000000e+01
ITEM: ATOMS id type x y z vx vy vz
4 2 4.10275 3.93155 4.2181 -48.7188 34.1977 38.1892
1 1 5.39582 5.53109 4.933 6.10551 -2.73272 -9.26753
6 2 5.5441 6.02921 3.93991 2.50899 6.44851 0.305788
3 2 4.26744 4.03406 5.96151 6.78588 8.6586 47.077
2 1 4.63358 4.45462 5.06934 -4.51308 -0.602733 1.61521
5 2 5.73773 6.17503 5.85446 20.4485 -9.55929 5.61372
ITEM: TIMESTEP
98100
ITEM: NUMBER OF ATOMS
6
ITEM: BOX BOUNDS pp pp pp
0.0000000000000000e+00 1.0000000000000000e+01
0.0000000000000000e+00 1.0000000000000000e+01
0.0000000000000000e+00 1.0000000000000000e+01
ITEM: ATOMS id type x y z vx vy vz
4 2 4.77834 6.09649 6.1415 58.9305 29.1414 20.0304
1 1 5.24033 4.85374 4.40911 -9.23165 -7.10684 -2.48164
6 2 5.79339 5.47901 3.62409 2.47278 -34.1804 9.62799
3 2 4.13176 4.39859 6.08037 -7.68739 34.15 -6.83514
2 1 4.77129 5.16491 5.59841 5.57481 1.43182 -0.137745
5 2 5.1605 3.80323 4.06628 -10.1407 38.513 8.38952
ITEM: TIMESTEP
98200
ITEM: NUMBER OF ATOMS
6
ITEM: BOX BOUNDS pp pp pp
0.0000000000000000e+00 1.0000000000000000e+01
0.0000000000000000e+00 1.0000000000000000e+01
0.0000000000000000e+00 1.0000000000000000e+01
ITEM: ATOMS id type x y z vx vy vz
4 2 6.19525 4.85981 5.94622 -22.1522 4.09768 7.00107
1 1 4.48007 4.65565 4.76137 -0.0889578 2.15152 6.0433
6 2 4.37032 3.6407 4.88371 -24.6476 53.2158 35.7775
3 2 5.77903 6.39066 4.9316 41.4134 9.55918 -27.8645
2 1 5.51018 5.3553 5.25843 2.37701 -7.96168 -9.22593
5 2 3.77403 4.97789 4.00439 -21.8782 2.36174 23.0103
ITEM: TIMESTEP
98300
ITEM: NUMBER OF ATOMS
6
ITEM: BOX BOUNDS pp pp pp
0.0000000000000000e+00 1.0000000000000000e+01
0.0000000000000000e+00 1.0000000000000000e+01
0.0000000000000000e+00 1.0000000000000000e+01