LAMMPS data file via write_data, version 2 Aug 2023, timestep = 133000, units = metal

6 atoms
2 atom types

0 10 xlo xhi
0 10 ylo yhi
0 10 zlo zhi

Masses

1 12.0107
2 1.00794

Atoms # atomic

4 2 3.5004947461349043 4.473621839610744 4.913673958971902 0 0 0
6 2 5.032364703036129 6.511234048584409 4.864813153825206 0 0 0
1 1 5.40272398736986 5.530710729716849 4.898832170018785 0 0 0
5 2 6.47486720212177 5.3881256514369005 4.907766482382429 0 0 0
2 1 4.602129234491581 4.483446443829769 5.111404309593309 0 0 0
3 2 4.936895354414671 3.457902743273893 5.193608583781131 0 0 0

Velocities

4 -13.368854565315619 26.18685168296775 28.654868849879005
6 -33.99623206109148 3.0143010028792263 14.481545600247076
1 6.055190853350178 -12.156642780324292 -8.31696373835538
5 -5.676685359192707 0.11970125070445958 -34.0486045588142
2 1.5733396688690906 11.489395426329041 8.521639319785425
3 -37.86045586845281 -21.36987689959434 -11.52674177801729
