LAMMPS data file via write_data, version 2 Aug 2023, timestep = 69565, units = metal

6 atoms
2 atom types

0 10 xlo xhi
0 10 ylo yhi
0 10 zlo zhi

Masses

1 12.0107
2 1.00794

Atoms # atomic

2 1 5.276588970274355 5.3424242260046855 5.487873320803367 0 0 0
3 2 4.645577936206833 5.75491252010518 6.306846888850318 0 0 0
5 2 3.621473064096129 4.4577675582422875 4.5115578099915945 0 0 0
4 2 6.386441069562277 5.518098572111631 5.502904835739605 0 0 0
6 2 5.345077838195788 4.230953739798081 3.6990465374846018 0 0 0
1 1 4.723730885979443 4.660753409581735 4.510566881018778 0 0 0

Velocities

2 3.431153171792444 -1.0058153627909179 -1.6941075702154997
3 1.1006468295632827 13.953242761816288 -11.761912447658979
5 -1.6833899500013914 6.629417176566142 1.1773444719965258
4 3.7218831437741215 -11.889385864247384 -6.330927989475892
6 -7.736712552558174 -13.69700331466297 8.131032165215219
1 -3.0453240981245093 1.4257291771978464 2.4313012760357777
