LAMMPS data file via write_data, version 2 Aug 2023, timestep = 69575, units = metal

6 atoms
2 atom types

0 10 xlo xhi
0 10 ylo yhi
0 10 zlo zhi

Masses

1 12.0107
2 1.00794

Atoms # atomic

1 1 5.451949254782109 5.404457805148305 4.714471156671878 0 0 0
5 2 5.8673719956202 6.313161031506231 5.222080324323875 0 0 0
6 2 5.842673658677217 5.2411744972605305 3.686304462004818 0 0 0
3 2 4.16423540953984 4.762758043885852 6.321802724015036 0 0 0
4 2 4.136990384111331 3.6977705660038644 4.750954188543547 0 0 0
2 1 4.54730468607262 4.594261005019062 5.287259922059221 0 0 0

Velocities

1 1.370277189018451 0.12070776088832275 -3.5992131756731776
5 17.40695791674483 -16.055189024707126 -6.091815477657069
6 -5.576805562274986 -0.5535086059696541 -4.108832572890327
3 1.70051369418875 -5.463614759017093 3.7418412657853675
4 -16.63950581997418 11.285941409346929 12.262099856804694
2 -1.109382823235991 0.7844863382009944 3.1121998276556786
