6
Step 1
 C      6.441049      5.745164      6.024902
 H      6.585581      4.819364      6.545616
 H      6.455384      5.645467      4.972406
 C      6.190274      6.908766      6.668064
 H      5.988060      7.762999      6.003966
 H      6.115181      7.009896      7.741632
6
Step 21
 C      6.453783      5.775045      6.001792
 H      6.597132      4.816202      6.463576
 H      6.402213      5.846243      4.934902
 C      6.184379      6.868706      6.684771
 H      5.941773      7.818537      6.174444
 H      6.119389      6.866265      7.758563
6
Step 41
 C      6.447387      5.783911      5.943270
 H      6.732086      4.821921      6.373276
 H      6.526355      5.831675      4.851990
 C      6.160024      6.860254      6.734395
 H      5.975320      7.897529      6.401394
 H      6.191307      6.772702      7.808047
6
Step 61
 C      6.447790      5.852517      5.915024
 H      6.716718      4.871288      6.335361
 H      6.509793      5.931948      4.811345
 C      6.165575      6.800790      6.770451
 H      5.933723      7.799335      6.370222
 H      6.192891      6.592633      7.819553
6
Step 81
 C      6.481195      5.850607      5.877078
 H      6.680845      4.777136      6.113781
 H      6.368917      6.190119      4.814428
 C      6.163284      6.785487      6.804873
 H      5.825233      7.816022      6.587783
 H      6.107655      6.594995      7.863646
6
Step 101
 C      6.465335      5.910979      5.857983
 H      6.778330      4.841307      5.921480
 H      6.443901      6.208320      4.762664
 C      6.153232      6.734177      6.844992
 H      5.888819      7.766358      6.559703
 H      6.181621      6.430248      7.878623
6
Step 121
 C      6.456409      5.945250      5.799657
 H      6.838978      4.938825      6.067999
 H      6.486810      6.420180      4.769737
 C      6.149555      6.682224      6.869643
 H      5.882101      7.758135      6.793752
 H      6.235261      6.316458      7.887005
6
Step 141
 C      6.475583      5.988589      5.793160
 H      6.794612      4.928748      5.714996
 H      6.434860      6.386477      4.727012
 C      6.150796      6.663997      6.896599
 H      5.764507      7.690476      6.986895
 H      6.205657      6.105724      7.837571
6
Step 161
 C      6.486108      6.047456      5.751811
 H      6.763492      4.984724      5.751961
 H      6.314206      6.660549      4.821782
 C      6.155442      6.588526      6.929527
 H      5.766428      7.613836      6.904896
 H      6.174363      6.028689      7.874141
6
Step 181
 C      6.468580      6.093558      5.736423
 H      6.897348      5.116326      5.496812
 H      6.425062      6.759646      4.842605
 C      6.142297      6.527394      6.944981
 H      5.826473      7.562642      7.097203
 H      6.235000      6.005228      7.910220
6
Step 201
 C      6.475091      6.134915      5.708655
 H      6.891730      5.175556      5.432181
 H      6.402361      6.882321      4.906260
 C      6.136898      6.499229      6.976824
 H      5.773001      7.493188      7.232786
 H      6.301565      5.714131      7.726975
6
Step 221
 C      6.476940      6.233091      5.704648
 H      6.781268      5.234694      5.495254
 H      6.314487      6.940611      4.911748
 C      6.164529      6.410392      6.962643
 H      5.717734      7.314458      7.353811
 H      6.200683      5.642146      7.745415
6
Step 241
 C      6.476641      6.267707      5.676151
 H      6.856547      5.417071      5.160136
 H      6.347570      7.074663      4.980186
 C      6.143405      6.363004      7.015625
 H      5.760553      7.294225      7.405802
 H      6.301971      5.476190      7.652838
6
Step 261
 C      6.450005      6.325520      5.695645
 H      6.911039      5.520916      5.193303
 H      6.338246      7.284765      5.279965
 C      6.158250      6.292271      6.960200
 H      5.817601      7.151641      7.505629
 H      6.335516      5.436886      7.632297
6
Step 281
 C      6.451902      6.424940      5.673665
 H      6.846503      5.619433      5.080859
 H      6.328591      7.314606      5.107813
 C      6.171867      6.208167      7.010800
 H      5.743778      7.036662      7.551696
 H      6.293628      5.218310      7.504010
6
Step 301
 C      6.455647      6.468829      5.715702
 H      6.782254      5.704183      5.022458
 H      6.229660      7.426271      5.294590
 C      6.178737      6.175617      6.960088
 H      5.744952      6.782448      7.736861
 H      6.323503      5.118372      7.267119
6
Step 321
 C      6.432549      6.548439      5.707771
 H      6.861317      5.849289      4.964073
 H      6.290687      7.597626      5.509113
 C      6.173386      6.077263      6.955467
 H      5.844350      6.755223      7.738581
 H      6.418206      5.030023      7.224306
6
Step 341
 C      6.412224      6.606978      5.754631
 H      6.827242      6.166528      4.809000
 H      6.314234      7.676055      5.555461
 C      6.199324      6.000767      6.916819
 H      5.847440      6.635014      7.734995
 H      6.355979      4.944857      7.200711
6
Step 361
 C      6.423952      6.671555      5.772278
 H      6.703986      6.099643      4.834142
 H      6.121037      7.711706      5.907342
 C      6.218551      5.964858      6.888440
 H      5.820724      6.382526      7.817479
 H      6.328891      4.865136      6.835572
6
Step 381
 C      6.390275      6.740307      5.842423
 H      6.682317      6.407782      4.777431
 H      6.255814      7.833680      5.711532
 C      6.225679      5.879380      6.846078
 H      5.929882      6.181503      7.856054
 H      6.422047      4.813138      6.679590
6
Step 401
 C      6.354623      6.802386      5.862786
 H      6.732590      6.427344      4.844998
 H      6.280912      7.878566      6.198606
 C      6.242678      5.825715      6.785057
 H      6.031034      6.032679      7.842160
 H      6.465567      4.775121      6.586313
6
Step 421
 C      6.353866      6.812480      5.928314
 H      6.581868      6.899709      4.805566
 H      6.162922      7.830073      6.373445
 C      6.274843      5.784555      6.731012
 H      6.006521      5.947794      7.778832
 H      6.382487      4.783025      6.338177
6
Step 441
 C      6.346822      6.909918      5.989379
 H      6.454363      6.928267      4.856749
 H      6.112203      7.896818      6.476265
 C      6.293230      5.704997      6.663956
 H      6.049402      5.686747      7.740343
 H      6.380826      4.708232      6.251444
6
Step 461
 C      6.305563      6.901301      6.076372
 H      6.508896      6.967036      4.988690
 H      6.224896      7.811618      6.691400
 C      6.295348      5.714380      6.579632
 H      6.215925      5.510772      7.651556
 H      6.511474      4.890865      5.915744
6
Step 481
 C      6.283680      6.962658      6.124996
 H      6.434065      7.342528      5.128405
 H      6.211497      7.804566      6.829598
 C      6.323233      5.636568      6.524150
 H      6.263072      5.296660      7.572304
 H      6.478117      4.898494      5.752734
6
Step 501
 C      6.283197      6.963753      6.225539
 H      6.254446      7.338111      5.254886
 H      6.081020      7.583967      7.083043
 C      6.359715      5.658806      6.403625
 H      6.231686      5.262943      7.426115
 H      6.386440      4.843337      5.708080
6
Step 521
 C      6.253419      6.970370      6.300080
 H      6.205615      7.545165      5.448052
 H      6.127856      7.530899      7.208543
 C      6.370326      5.621600      6.332482
 H      6.361864      5.163340      7.340184
 H      6.481584      5.119590      5.383796
6
Step 541
 C      6.209605      6.974445      6.384631
 H      6.251836      7.592966      5.569176
 H      6.212011      7.464406      7.339258
 C      6.382369      5.640817      6.261569
 H      6.530597      4.807211      6.965419
 H      6.555680      5.176955      5.290783
6
Step 561
 C      6.204459      6.928889      6.493968
 H      6.136211      7.584882      5.685533
 H      6.098763      7.305655      7.499470
 C      6.422776      5.662354      6.140254
 H      6.459842      4.963829      6.992890
 H      6.428295      5.430249      5.074362
6
Step 581
 C      6.199187      6.920421      6.553048
 H      5.962595      7.831001      6.038101
 H      6.055854      7.024192      7.639418
 C      6.438376      5.689663      6.066386
 H      6.516313      4.764216      6.692462
 H      6.458364      5.408369      5.003302
6
Step 601
 C      6.168176      6.867099      6.641686
 H      6.023143      7.840218      6.140172
 H      6.191998      6.792554      7.746877
 C      6.429590      5.731009      5.977671
 H      6.670081      4.811859      6.551494
 H      6.575710      5.693930      4.879494
6
Step 621
 C      6.156820      6.773164      6.731051
 H      6.017866      7.809573      6.268689
 H      6.149154      6.825772      7.846316
 C      6.446364      5.796433      5.890107
 H      6.717061      4.803667      6.309158
 H      6.507603      6.007001      4.815226
6
Step 641
 C      6.158820      6.752148      6.794607
 H      5.811928      7.828387      6.503527
 H      6.072689      6.412895      7.870667
 C      6.480957      5.839902      5.842681
 H      6.669601      4.771079      5.834214
 H      6.397773      6.135552      4.780473
6
Step 661
 C      6.158451      6.636998      6.831745
 H      5.797759      7.754097      6.808832
 H      6.130398      6.175697      7.858040
 C      6.468424      5.942192      5.761424
 H      6.718746      4.927959      6.007107
 H      6.455296      6.416870      4.780074
6
Step 681
 C      6.124187      6.555226      6.907279
 H      5.888533      7.694319      7.034753
 H      6.257414      5.949121      7.838501
 C      6.461191      6.033635      5.702240
 H      6.865889      5.028735      5.623344
 H      6.580283      6.460749      4.702089
6
Step 701
 C      6.139716      6.473772      6.910207
 H      5.777076      7.523749      7.209102
 H      6.188142      5.755153      7.736536
 C      6.489454      6.098822      5.684899
 H      6.762104      5.103094      5.399857
 H      6.336829      6.916363      4.959929
6
Step 721
 C      6.164513      6.344385      6.955049
 H      5.733352      7.346776      7.225524
 H      6.115479      5.577601      7.700995
 C      6.477143      6.230104      5.653472
 H      6.733287      5.272022      5.228649
 H      6.326983      7.051069      4.925978
6
Step 741
 C      6.151806      6.264884      6.959373
 H      5.843135      7.123698      7.567889
 H      6.278635      5.364040      7.485167
 C      6.444285      6.311797      5.637838
 H      6.873855      5.479038      5.102934
 H      6.451130      7.225778      4.998119
6
Step 761
 C      6.159738      6.174275      6.924566
 H      5.890267      6.865939      7.677487
 H      6.363042      5.214075      7.247264
 C      6.437398      6.407448      5.651808
 H      6.831864      5.570357      5.098474
 H      6.344349      7.452964      5.317982
6
Step 781
 C      6.194654      6.035619      6.933986
 H      5.797653      6.724514      7.607186
 H      6.252917      5.046086      7.236631
 C      6.438169      6.532179      5.675790
 H      6.686860      5.930249      4.799101
 H      6.263027      7.539743      5.250028
6
Step 801
 C      6.212973      5.978958      6.862022
 H      5.858004      6.486472      7.695201
 H      6.300103      4.936774      7.017640
 C      6.411620      6.593795      5.706548
 H      6.743841      6.057189      4.819597
 H      6.193488      7.671695      5.806895
6
Step 821
 C      6.207038      5.874812      6.826577
 H      6.001036      6.255268      7.781612
 H      6.481660      4.834027      6.690063
 C      6.375164      6.687600      5.761886
 H      6.797760      6.363021      4.801397
 H      6.316347      7.794810      5.783345
6
Step 841
 C      6.240907      5.798996      6.749931
 H      5.966575      5.939147      7.781743
 H      6.447462      4.712277      6.538619
 C      6.373294      6.786174      5.833042
 H      6.616715      6.427077      4.816898
 H      6.179019      7.870071      5.939352
6
Step 861
 C      6.281758      5.760119      6.677997
 H      5.925820      5.833890      7.707589
 H      6.398201      4.729024      6.172674
 C      6.358203      6.814682      5.902274
 H      6.518753      6.731937      4.807685
 H      6.052827      7.745342      6.376235
6
Step 881
 C      6.294496      5.671221      6.593696
 H      6.090256      5.637364      7.694544
 H      6.510961      4.619345      6.106062
 C      6.305730      6.883616      5.967334
 H      6.589562      7.171772      4.938022
 H      6.170454      7.812368      6.512946
6
Step 901
 C      6.308967      5.665927      6.483134
 H      6.191948      5.420666      7.576945
 H      6.608185      4.720237      5.830644
 C      6.280613      6.916262      6.077141
 H      6.540311      7.042402      5.014920
 H      6.138363      7.695964      6.796301
6
Step 921
 C      6.347838      5.617481      6.424289
 H      6.139038      5.151286      7.430057
 H      6.512457      5.020199      5.442974
 C      6.282952      6.931499      6.161980
 H      6.321014      7.372593      5.140384
 H      6.005495      7.701694      6.854004
6
Step 941
 C      6.370789      5.618688      6.308419
 H      6.255863      4.957088      7.205867
 H      6.511801      4.894415      5.444333
 C      6.244817      6.960388      6.257745
 H      6.346878      7.469364      5.275609
 H      6.034881      7.537586      7.141307
6
Step 961
 C      6.371307      5.618572      6.198683
 H      6.383189      5.133258      7.182536
 H      6.633393      5.185817      5.222304
 C      6.212045      6.921049      6.348902
 H      6.358071      7.642098      5.508047
 H      6.149621      7.333290      7.336010
6
Step 981
 C      6.393488      5.622307      6.128853
 H      6.443760      4.755076      6.793945
 H      6.577042      5.281933      5.126379
 C      6.215777      6.933610      6.427277
 H      6.133945      7.793896      5.731679
 H      6.050069      7.232265      7.455250
6
Step 1001
 C      6.427708      5.663717      6.028112
 H      6.422767      4.784091      6.653201
 H      6.442541      5.562944      4.990965
 C      6.205797      6.887889      6.536369
 H      6.065130      7.644095      5.750669
 H      5.974000      7.088393      7.572628
6
Step 1021
 C      6.434421      5.705576      5.940822
 H      6.570037      4.789689      6.489948
 H      6.516025      5.700697      4.916547
 C      6.164686      6.828342      6.600675
 H      6.099569      7.808701      6.111093
 H      6.117880      6.959300      7.682988
6
Step 1041
 C      6.437663      5.738464      5.874007
 H      6.677680      4.753232      6.230382
 H      6.580014      5.764740      4.848123
 C      6.147379      6.820878      6.668833
 H      6.012321      7.851159      6.341135
 H      6.191555      6.552626      7.725439
6
Step 1061
 C      6.452836      5.827321      5.801006
 H      6.612121      4.849235      6.222663
 H      6.439341      6.078020      4.788014
 C      6.174060      6.708766      6.727975
 H      5.866105      7.711902      6.461048
 H      6.036925      6.528264      7.799955
6
Step 1081
 C      6.469505      5.861661      5.753967
 H      6.714036      4.785440      5.707532
 H      6.413973      6.216939      4.736311
 C      6.142871      6.683328      6.805039
 H      5.878434      7.704133      6.573662
 H      6.113421      6.325562      7.857190
6
Step 1101
 C      6.451141      5.934373      5.723654
 H      6.819334      4.887094      5.728312
 H      6.449432      6.529592      4.792888
 C      6.133572      6.593313      6.806981
 H      5.918989      7.644503      6.831927
 H      6.252652      6.148896      7.821391
6
Step 1121
 C      6.451142      6.022873      5.654829
 H      6.813794      4.954748      5.686097
 H      6.459275      6.539503      4.649423
 C      6.146912      6.526626      6.877610
 H      5.796148      7.539646      6.977432
 H      6.201956      5.888445      7.801630
6
Step 1141
 C      6.468579      6.074320      5.663748
 H      6.782452      5.041657      5.360280
 H      6.326447      6.723218      4.718828
 C      6.151294      6.475911      6.880124
 H      5.715206      7.415122      7.167590
 H      6.176392      5.706775      7.697410
6
Step 1161
 C      6.463093      6.141149      5.622156
 H      6.851070      5.130662      5.336640
 H      6.310081      7.047216      4.947522
 C      6.134396      6.380258      6.898539
 H      5.808751      7.375946      7.166479
 H      6.286432      5.651423      7.735397
6
Step 1181
 C      6.443905      6.218845      5.625290
 H      6.897190      5.350472      5.094500
 H      6.416638      7.014779      4.817638
 C      6.139018      6.304995      6.916593
 H      5.805691      7.270585      7.290032
 H      6.298720      5.516617      7.690569
6
Step 1201
 C      6.459733      6.267346      5.601871
 H      6.824205      5.312538      5.197843
 H      6.224212      7.226653      5.080045
 C      6.157208      6.275645      6.910784
 H      5.694965      7.065123      7.497780
 H      6.257687      5.295030      7.422152
6
Step 1221
 C      6.442253      6.349055      5.628602
 H      6.804470      5.538473      4.987878
 H      6.303478      7.224727      4.964802
 C      6.161533      6.185300      6.908935
 H      5.730373      6.996481      7.492610
 H      6.306758      5.219505      7.409488
6
Step 1241
 C      6.431908      6.397478      5.597471
 H      6.874782      5.647148      4.959672
 H      6.283554      7.440539      5.259934
 C      6.153002      6.116417      6.906199
 H      5.820329      6.927764      7.561559
 H      6.379751      5.184560      7.426094
6
Step 1261
 C      6.421174      6.433532      5.642284
 H      6.843190      5.815056      4.880675
 H      6.229965      7.468820      5.373680
 C      6.176422      6.084255      6.870870
 H      5.774535      6.780244      7.607061
 H      6.350132      5.064280      7.178659
6
Step 1281
 C      6.422431      6.527988      5.628399
 H      6.762972      5.865203      4.858133
 H      6.217593      7.519137      5.262034
 C      6.190614      6.003221      6.892033
 H      5.715234      6.607436      7.677581
 H      6.311423      4.955464      7.099160
6
Step 1301
 C      6.406519      6.550126      5.676202
 H      6.787145      5.940745      4.888332
 H      6.211136      7.586662      5.547741
 C      6.184904      5.978383      6.819394
 H      5.829768      6.481725      7.725618
 H      6.431388      4.951723      6.972120
6
Step 1321
 C      6.398629      6.600093      5.668035
 H      6.811823      6.245541      4.743482
 H      6.229854      7.655081      5.641476
 C      6.183700      5.902288      6.835185
 H      5.865982      6.477714      7.722083
 H      6.455580      4.872351      6.879805
6
Step 1341
 C      6.387452      6.651960      5.716897
 H      6.727033      6.228685      4.785033
 H      6.145583      7.692246      5.759346
 C      6.225450      5.869418      6.768117
 H      5.801429      6.266785      7.715595
 H      6.320007      4.815056      6.890617
6
Step 1361
 C      6.380977      6.687398      5.742777
 H      6.687925      6.325913      4.758418
 H      6.141931      7.736918      5.832227
 C      6.222760      5.826191      6.765262
 H      5.827257      6.202080      7.735122
 H      6.440090      4.804764      6.500381
6
Step 1381
 C      6.359554      6.725694      5.770646
 H      6.725463      6.491895      4.757480
 H      6.199012      7.795467      5.919607
 C      6.218649      5.796666      6.715589
 H      5.971419      5.905720      7.800584
 H      6.497744      4.749157      6.568616
6
Step 1401
 C      6.343941      6.765828      5.814640
 H      6.687689      6.538387      4.781346
 H      6.130303      7.791570      6.152071
 C      6.249789      5.742983      6.670554
 H      5.927571      6.048163      7.699630
 H      6.454238      4.697202      6.386360
6
Step 1421
 C      6.346779      6.777148      5.846071
 H      6.571318      6.836923      4.753690
 H      6.085697      7.789432      6.225399
 C      6.267717      5.727218      6.642692
 H      5.885581      5.781657      7.700433
 H      6.402106      4.698335      6.263452
6
Step 1441
 C      6.328380      6.836301      5.886320
 H      6.607306      6.750670      4.801144
 H      6.116005      7.815689      6.375957
 C      6.257876      5.684375      6.594265
 H      6.039343      5.627150      7.684234
 H      6.513440      4.697251      6.145640
6
Step 1461
 C      6.304878      6.831886      5.957668
 H      6.606188      6.915049      4.875042
 H      6.159017      7.841415      6.403829
 C      6.268565      5.663761      6.534369
 H      6.104831      5.631127      7.615746
 H      6.555414      4.780712      5.941711
6
Step 1481
 C      6.306610      6.887057      5.963006
 H      6.483499      7.105231      4.879193
 H      6.061145      7.712940      6.675699
 C      6.300333      5.632985      6.511751
 H      6.039741      5.346673      7.521675
 H      6.438465      4.703098      5.926811
6
Step 1501
 C      6.290759      6.869761      6.045489
 H      6.424762      7.188667      4.995010
 H      6.052021      7.712753      6.724969
 C      6.314972      5.622058      6.434102
 H      6.078395      5.486544      7.459867
 H      6.477359      4.802439      5.725397
6
Step 1521
 C      6.262601      6.919444      6.088962
 H      6.477418      7.229289      5.062162
 H      6.105657      7.693643      6.860595
 C      6.310082      5.591550      6.384261
 H      6.252740      5.192553      7.369746
 H      6.584374      4.822617      5.647242
6
Step 1541
 C      6.253299      6.906310      6.134460
 H      6.395419      7.373765      5.173166
 H      6.078843      7.600554      6.953517
 C      6.333785      5.595280      6.344668
 H      6.230600      5.067781      7.248394
 H      6.537517      4.985292      5.451121
6
Step 1561
 C      6.244327      6.918778      6.219463
 H      6.284696      7.409766      5.274938
 H      6.004653      7.513110      7.084763
 C      6.369589      5.579345      6.250097
 H      6.160078      5.155174      7.191166
 H      6.468550      4.966933      5.343904
6
Step 1581
 C      6.228146      6.925370      6.261247
 H      6.285718      7.596987      5.443924
 H      6.045710      7.355929      7.216990
 C      6.358998      5.588136      6.194883
 H      6.333700      4.925553      7.036886
 H      6.566674      4.963934      5.309469
6
Step 1601
 C      6.209021      6.898670      6.326043
 H      6.288027      7.623391      5.564381
 H      6.094895      7.282782      7.305239
 C      6.362130      5.584472      6.130074
 H      6.419001      4.943470      6.998029
 H      6.614826      5.341173      5.091137
6
Step 1621
 C      6.196615      6.892976      6.424550
 H      6.176719      7.579279      5.616727
 H      6.025637      7.252729      7.406058
 C      6.401299      5.622367      6.043913
 H      6.369839      4.739198      6.718059
 H      6.518769      5.219061      5.019777
6
Step 1641
 C      6.188467      6.863472      6.460127
 H      6.081124      7.760084      5.880731
 H      6.012109      7.021075      7.511296
 C      6.418442      5.626546      5.988652
 H      6.407244      4.734876      6.670934
 H      6.474945      5.549095      4.879644
6
Step 1661
 C      6.164289      6.819212      6.535297
 H      6.113767      7.774479      6.015646
 H      6.102133      6.782400      7.618538
 C      6.403155      5.683889      5.906070
 H      6.597076      4.748446      6.517353
 H      6.623933      5.575080      4.821628
6
Step 1681
 C      6.149435      6.775570      6.623670
 H      6.023434      7.795926      6.183266
 H      6.074276      6.774663      7.727092
 C      6.432970      5.716338      5.819139
 H      6.587955      4.683619      6.271528
 H      6.564796      5.727075      4.714356
6
Step 1701
 C      6.157095      6.711607      6.647863
 H      5.901950      7.766139      6.323993
 H      6.033304      6.458935      7.731968
 C      6.458442      5.772061      5.789168
 H      6.533123      4.681515      6.061892
 H      6.379425      6.137614      4.783893
6
Step 1721
 C      6.139767      6.651849      6.743812
 H      5.915240      7.759156      6.532714
 H      6.080994      6.293789      7.814540
 C      6.443373      5.841538      5.696079
 H      6.713691      4.754564      5.783330
 H      6.515343      6.084370      4.666095
6
Step 1741
 C      6.133799      6.566686      6.762953
 H      5.900980      7.690241      6.843172
 H      6.188379      6.094328      7.794602
 C      6.433398      5.908603      5.638219
 H      6.778827      4.880702      5.826774
 H      6.537879      6.405546      4.722620
6
Step 1761
 C      6.136043      6.498269      6.807420
 H      5.784191      7.574576      6.912846
 H      6.182735      5.759717      7.649296
 C      6.458314      5.991739      5.626765
 H      6.713632      4.950917      5.409413
 H      6.391574      6.571327      4.758021
6
Step 1781
 C      6.139469      6.389546      6.857118
 H      5.755443      7.413347      7.122198
 H      6.088534      5.776759      7.784099
 C      6.468683      6.081402      5.555130
 H      6.732841      5.075069      5.249614
 H      6.318486      6.779667      4.771428
6
Step 1801
 C      6.134500      6.296888      6.837611
 H      5.838843      7.289429      7.167370
 H      6.299797      5.451487      7.522225
 C      6.428828      6.171837      5.577441
 H      6.873328      5.261251      5.207224
 H      6.403278      7.029661      4.939537
6
Step 1821
 C      6.129895      6.220318      6.877443
 H      5.774800      7.004260      7.515894
 H      6.308923      5.287753      7.382863
 C      6.440367      6.257447      5.536074
 H      6.852141      5.422237      4.981903
 H      6.382122      7.170239      4.926461
6
Step 1841
 C      6.161868      6.106027      6.840511
 H      5.741882      6.817255      7.478026
 H      6.237763      5.148755      7.284417
 C      6.443034      6.374347      5.570329
 H      6.718416      5.515871      4.971939
 H      6.191445      7.331447      5.054987
6
Step 1861
 C      6.166303      6.010419      6.832804
 H      5.790389      6.724538      7.476375
 H      6.346716      5.003615      7.054469
 C      6.415290      6.442169      5.589063
 H      6.806606      5.844971      4.761096
 H      6.208620      7.531250      5.323154
6
Step 1881
 C      6.174123      5.928573      6.792608
 H      5.857233      6.353414      7.685012
 H      6.389034      4.921258      7.045713
 C      6.387250      6.526630      5.592722
 H      6.867840      6.090563      4.718360
 H      6.266456      7.669148      5.562232
6
Step 1901
 C      6.206357      5.830437      6.731125
 H      5.819115      6.324119      7.587523
 H      6.425752      4.783906      6.605922
 C      6.378250      6.626655      5.686144
 H      6.722625      6.123203      4.785649
 H      6.123581      7.742581      5.611866
6
Step 1921
 C      6.221306      5.771321      6.681771
 H      5.821025      5.882663      7.715471
 H      6.409084      4.702165      6.475768
 C      6.376562      6.695006      5.718813
 H      6.647671      6.456214      4.695659
 H      6.040485      7.784904      5.860429
6
Step 1941
 C      6.231838      5.698291      6.601187
 H      5.931587      5.827657      7.702083
 H      6.540946      4.667242      6.269679
 C      6.328845      6.752610      5.776834
 H      6.719791      6.706793      4.774729
 H      6.152703      7.770264      6.228495
6
Step 1961
 C      6.264392      5.638140      6.495232
 H      5.966786      5.734486      7.627121
 H      6.540238      4.634360      6.042424
 C      6.301622      6.805700      5.884752
 H      6.642519      6.870162      4.868339
 H      6.115739      7.781827      6.373711
6
Step 1981
 C      6.283463      5.608061      6.452808
 H      6.007775      5.167125      7.501668
 H      6.472444      4.704745      5.761926
 C      6.312268      6.865685      5.939177
 H      6.454949      7.072734      4.896616
 H      5.959259      7.683273      6.567627
6
Step 2001
 C      6.305842      5.577237      6.334179
 H      6.091581      5.267083      7.427404
 H      6.561482      4.911515      5.468865
 C      6.267704      6.861397      6.057886
 H      6.436823      7.174487      5.044970
 H      6.050008      7.656414      6.743813
6
Step 2021
 C      6.330969      5.555689      6.224970
 H      6.245150      4.998558      7.225792
 H      6.575958      4.776881      5.477099
 C      6.218271      6.907548      6.142668
 H      6.458230      7.403017      5.207883
 H      6.130470      7.508503      7.023708
6
Step 2041
 C      6.354740      5.554507      6.161289
 H      6.256411      4.955194      7.088081
 H      6.490226      5.126215      5.175436
 C      6.226986      6.880391      6.209642
 H      6.245855      7.633094      5.419008
 H      6.010730      7.279216      7.170332
6
Step 2061
 C      6.374750      5.575282      6.038529
 H      6.330942      4.810571      6.806957
 H      6.494565      5.201931      5.054285
 C      6.211551      6.872259      6.347178
 H      6.127071      7.539316      5.467979
 H      5.976232      7.260285      7.305178
6
Step 2081
 C      6.385314      5.584984      5.961796
 H      6.496456      4.720318      6.539272
 H      6.537877      5.410799      4.931014
 C      6.165345      6.846074      6.421939
 H      6.180675      7.712404      5.696572
 H      6.116631      7.140201      7.448847
6
Step 2101
 C      6.401062      5.636623      5.882144
 H      6.538903      4.798091      6.458918
 H      6.482259      5.668894      4.843634
 C      6.155747      6.788394      6.478994
 H      6.085932      7.792569      5.984180
 H      6.128811      6.772832      7.557272
6
Step 2121
 C      6.422535      5.694388      5.768782
 H      6.544230      4.752521      6.184219
 H      6.467618      5.566343      4.718680