LAMMPS (2 Aug 2023)
OMP_NUM_THREADS environment is not set. Defaulting to 1 thread. (src/comm.cpp:98)
  using 1 OpenMP thread(s) per MPI task
Loaded 1 plugins from /home/venkatan/deepmd-kit/lib/deepmd_lmp
# LAMMPS input script for a custom data setup

units           metal
boundary        p p p
atom_style      atomic

# Define simulation box
region box block 0.0 10.0 0.0 10.0 0.0 10.0
create_box 2 box   # 2 = number of atom types
Created orthogonal box = (0 0 0) to (10 10 10)
  1 by 1 by 1 MPI processor grid

# Define masses
mass 1 12.0107    # C
mass 2 1.00794    # H

# Create atoms (atom-ID, atom-type, x, y, z)
create_atoms 1 single 4.34039 4.909915 5.001325
Created 1 atoms
  using lattice units in orthogonal box = (0 0 0) to (10 10 10)
  create_atoms CPU = 0.000 seconds
create_atoms 1 single 5.65960 5.090085 4.998665
Created 1 atoms
  using lattice units in orthogonal box = (0 0 0) to (10 10 10)
  create_atoms CPU = 0.000 seconds
create_atoms 2 single 6.24080 4.883975 5.891915
Created 1 atoms
  using lattice units in orthogonal box = (0 0 0) to (10 10 10)
  create_atoms CPU = 0.000 seconds
create_atoms 2 single 6.16001 5.443825 4.103245
Created 1 atoms
  using lattice units in orthogonal box = (0 0 0) to (10 10 10)
  create_atoms CPU = 0.000 seconds
create_atoms 2 single 3.83999 4.556175 5.896755
Created 1 atoms
  using lattice units in orthogonal box = (0 0 0) to (10 10 10)
  create_atoms CPU = 0.000 seconds
create_atoms 2 single 3.75992 5.116025 4.108085
Created 1 atoms
  using lattice units in orthogonal box = (0 0 0) to (10 10 10)
  create_atoms CPU = 0.000 seconds

# Neighbor and interaction setup
neighbor        1.0 bin
neigh_modify    every 10 delay 0 check no

# Define force field
pair_style deepmd ../../graph.pb
Summary of lammps deepmd module ...
  >>> Info of deepmd-kit:
  installed to:       /home/venkatan/deepmd-kit
  source:             
  source branch:      HEAD
  source commit:      c45d372
  source commit at:   2024-07-07 08:06:13 +0000
  support model ver.: 1.1 
  build variant:      cuda
  build with tf inc:  /home/venkatan/deepmd-kit/lib/python3.11/site-packages/tensorflow/include;/home/venkatan/deepmd-kit/include
  build with tf lib:  /home/venkatan/deepmd-kit/lib/python3.11/site-packages/tensorflow/libtensorflow_cc.so.2
  set tf intra_op_parallelism_threads: 0
  set tf inter_op_parallelism_threads: 0
  >>> Info of lammps module:
  use deepmd-kit at:  /home/venkatan/deepmd-kitpair_coeff * *

# Define groups
group real_atom type 1 2
6 atoms in group real_atom

# Initialize velocities
velocity real_atom create 150 12345 mom yes rot no

# Minimize to remove overlaps
minimize 1.0e-4 1.0e-6 1000 10000

CITE-CITE-CITE-CITE-CITE-CITE-CITE-CITE-CITE-CITE-CITE-CITE-CITE

Your simulation uses code contributions which should be cited:

- USER-DEEPMD package:

@article{Wang_ComputPhysCommun_2018_v228_p178,
  author = {Wang, Han and Zhang, Linfeng and Han, Jiequn and E, Weinan},
  doi = {10.1016/j.cpc.2018.03.016},
  url = {https://doi.org/10.1016/j.cpc.2018.03.016},
  year = 2018,
  month = {jul},
  publisher = {Elsevier {BV}},
  volume = 228,
  journal = {Comput. Phys. Commun.},
  title = {{DeePMD-kit: A deep learning package for many-body potential energy representation and molecular dynamics}},
  pages = {178--184}
}
@misc{Zeng_JChemPhys_2023_v159_p054801,
  title  = {{DeePMD-kit v2: A software package for deep potential models}},
  author =   {Jinzhe Zeng and Duo Zhang and Denghui Lu and Pinghui Mo and Zeyu Li
         and Yixiao Chen and Mari{\'a}n Rynik and Li'ang Huang and Ziyao Li and 
         Shaochen Shi and Yingze Wang and Haotian Ye and Ping Tuo and Jiabin
         Yang and Ye Ding and Yifan Li and Davide Tisi and Qiyu Zeng and Han 
         Bao and Yu Xia and Jiameng Huang and Koki Muraoka and Yibo Wang and 
         Junhan Chang and Fengbo Yuan and Sigbj{\o}rn L{\o}land Bore and Chun
         Cai and Yinnian Lin and Bo Wang and Jiayan Xu and Jia-Xin Zhu and 
         Chenxing Luo and Yuzhi Zhang and Rhys E A Goodall and Wenshuo Liang
         and Anurag Kumar Singh and Sikai Yao and Jingchao Zhang and Renata
         Wentzcovitch and Jiequn Han and Jie Liu and Weile Jia and Darrin M
         York and Weinan E and Roberto Car and Linfeng Zhang and Han Wang},
  journal =  {J. Chem. Phys.},
  volume =   159,
  issue =    5,  
  year =    2023,
  pages  =   054801,
  doi =      {10.1063/5.0155600},
}

CITE-CITE-CITE-CITE-CITE-CITE-CITE-CITE-CITE-CITE-CITE-CITE-CITE

Switching to 'neigh_modify every 1 delay 0 check yes' setting during minimization
Generated 0 of 1 mixed pair_coeff terms from geometric mixing rule
Neighbor list info ...
  update: every = 1 steps, delay = 0 steps, check = yes
  max neighbors/atom: 2000, page size: 100000
  master list distance cutoff = 7
  ghost atom cutoff = 7
  binsize = 3.5, bins = 3 3 3
  1 neighbor lists, perpetual/occasional/extra = 1 0 0
  (1) pair deepmd, perpetual
      attributes: full, newton on
      pair build: full/bin/atomonly
      stencil: full/bin/3d
      bin: standard
Per MPI rank memory allocation (min/avg/max) = 4.184 | 4.184 | 4.184 Mbytes
   Step          Temp          E_pair         E_mol          TotEng         Press     
         0   150           -373.46152      0             -373.36457      798.35726    
         1   150           -373.46524      0             -373.36829      685.34493    
Loop time of 0.00715744 on 1 procs for 1 steps with 6 atoms

151.9% CPU use with 1 MPI tasks x 1 OpenMP threads

Minimization stats:
  Stopping criterion = energy tolerance
  Energy initial, next-to-last, final = 
     -373.461519364516  -373.461519364516  -373.465236727397
  Force two-norm initial, final = 0.64558959 0.63761791
  Force max component initial, final = 0.28590009 0.36168362
  Final line search alpha, max atom move = 0.34977254 0.126507
  Iterations, force evaluations = 1 2

MPI task timing breakdown:
Section |  min time  |  avg time  |  max time  |%varavg| %total
---------------------------------------------------------------
Pair    | 0.0071154  | 0.0071154  | 0.0071154  |   0.0 | 99.41
Neigh   | 0          | 0          | 0          |   0.0 |  0.00
Comm    | 6.45e-06   | 6.45e-06   | 6.45e-06   |   0.0 |  0.09
Output  | 0          | 0          | 0          |   0.0 |  0.00
Modify  | 0          | 0          | 0          |   0.0 |  0.00
Other   |            | 3.559e-05  |            |       |  0.50

Nlocal:              6 ave           6 max           6 min
Histogram: 1 0 0 0 0 0 0 0 0 0
Nghost:            156 ave         156 max         156 min
Histogram: 1 0 0 0 0 0 0 0 0 0
Neighs:              0 ave           0 max           0 min
Histogram: 1 0 0 0 0 0 0 0 0 0
FullNghs:           30 ave          30 max          30 min
Histogram: 1 0 0 0 0 0 0 0 0 0

Total # of neighbors = 30
Ave neighs/atom = 5
Neighbor list builds = 0
Dangerous builds not checked


# Thermostat setup
compute real_temp real_atom temp
compute real_press all pressure real_temp
fix 1 real_atom nvt temp 150.0 150.0 0.1
fix_modify 1 temp real_temp
WARNING: Temperature for fix modify is not for group all (src/fix_nh.cpp:1411)

# Thermodynamic output
timestep 0.001
thermo 2
thermo_style custom step ke pe etotal temp press vol
thermo_modify temp real_temp press real_press
WARNING: Temperature for thermo pressure is not for group all (src/thermo.cpp:527)

# Output thermodynamic data to a separate file
fix thermo_print all print 2 "$(step) $(temp) $(press) $(ke) $(pe) $(etotal)" file thermo_data_NVT150.out screen no title "# Step Temp Press KE PE Total_Energy"

# Dump configuration
dump 1 real_atom custom 2 ethylene_NVT150.dump id type x y z vx vy vz

# Run the first 19000 steps without writing restart files
run 49550
Generated 0 of 1 mixed pair_coeff terms from geometric mixing rule
Per MPI rank memory allocation (min/avg/max) = 2.559 | 2.559 | 2.559 Mbytes
   Step         KinEng         PotEng         TotEng          Temp          Press          Volume    
         1   0.096945109   -373.46524     -373.36829      150            685.34493      1000         
         2   0.087017744   -373.45411     -373.36709      134.63971     -370.66178      1000         
         4   0.060582893   -373.42533     -373.36475      93.737931     -1441.3778      1000         
         6   0.096248688   -373.46409     -373.36784      148.92245     -584.2839       1000         
         8   0.070897305   -373.43691     -373.36601      109.69708      1034.2687      1000         
        10   0.060451799   -373.42584     -373.36539      93.535094      985.22589      1000         
        12   0.0866399     -373.45441     -373.36777      134.05509     -901.18709      1000         
        14   0.053951158   -373.41848     -373.36453      83.476864     -2171.5236      1000         
        16   0.084300904   -373.45067     -373.36637      130.43603     -1368.827       1000         
        18   0.096606396   -373.46382     -373.36722      149.47592      859.39687      1000         
        20   0.064602474   -373.42854     -373.36394      99.957298      2073.7458      1000         
        22   0.094931553   -373.4624      -373.36746      146.88449      883.9268       1000         
        24   0.061713828   -373.42633     -373.36462      95.487791     -784.40988      1000         
        26   0.061356908   -373.4258      -373.36444      94.935539     -924.25145      1000         
        28   0.096284409   -373.46337     -373.36709      148.97772      573.12978      1000         
        30   0.063694195   -373.42691     -373.36322      98.551947      1820.0602      1000         
        32   0.090950093   -373.45686     -373.36591      140.72411      758.92599      1000         
        34   0.081963163   -373.4469      -373.36493      126.81892     -1425.7082      1000         
        36   0.053329143   -373.41598     -373.36265      82.514441     -2275.3043      1000         
        38   0.091861827   -373.45748     -373.36562      142.1348      -992.22361      1000         
        40   0.072789844   -373.43597     -373.36318      112.62535      1066.2934      1000         
        42   0.078642152   -373.44183     -373.36319      121.68043      1349.865       1000         
        44   0.099821744   -373.46459     -373.36477      154.45092     -224.98006      1000         
        46   0.057118046   -373.41837     -373.36126      88.376886     -1265.9167      1000         
        48   0.07881026    -373.44192     -373.36311      121.94054     -427.71468      1000         
        50   0.080773865   -373.4438      -373.36302      124.97876      1568.3938      1000         
        52   0.063032922   -373.42329     -373.36026      97.528782      2261.0076      1000         
        54   0.1063813     -373.46985     -373.36347      164.60031      506.57614      1000         
        56   0.077516369   -373.43777     -373.36025      119.93855     -1555.6291      1000         
        58   0.076533203   -373.43665     -373.36012      118.41732     -1844.6407      1000         
        60   0.095069539   -373.45705     -373.36198      147.09799     -260.55947      1000         
        62   0.054606339   -373.41244     -373.35783      84.490605      1176.4997      1000         
        64   0.087318528   -373.44789     -373.36057      135.10511      399.99466      1000         
        66   0.085801361   -373.44499     -373.35919      132.75764     -1344.7402      1000         
        68   0.068930006   -373.42595     -373.35702      106.65315     -1695.3743      1000         
        70   0.10565478    -373.4653      -373.35964      163.47619     -15.20055       1000         
        72   0.074757543   -373.43115     -373.35639      115.6699       2144.2934      1000         
        74   0.076511335   -373.43302     -373.3565       118.38349      2176.7876      1000         
        76   0.095602912   -373.45303     -373.35742      147.92326      158.55231      1000         
        78   0.066008274   -373.41999     -373.35398      102.13245     -1385.8016      1000         
        80   0.099199336   -373.45504     -373.35584      153.48789     -978.87466      1000         
        82   0.095485507   -373.45041     -373.35493      147.74161      708.19212      1000         
        84   0.067633625   -373.41969     -373.35206      104.6473       1220.4249      1000         
        86   0.097150328   -373.45169     -373.35454      150.31753     -467.3255       1000         
        88   0.069623568   -373.42076     -373.35114      107.72627     -2159.3679      1000         
        90   0.08413714    -373.43523     -373.35109      130.18265     -1854.8781      1000         
        92   0.11544927    -373.46793     -373.35248      178.63089      333.79492      1000         
        94   0.080810676   -373.42893     -373.34812      125.03572      2146.1742      1000         
        96   0.10134797    -373.45152     -373.35017      156.81241      1469.0249      1000         
        98   0.081623443   -373.42967     -373.34805      126.29329     -406.28434      1000         
       100   0.062559407   -373.40838     -373.34582      96.796127     -1074.7637      1000         
       102   0.10817593    -373.45639     -373.34822      167.37708      144.84782      1000         
       104   0.091705658   -373.43637     -373.34466      141.89317      1727.6712      1000         
       106   0.10116419    -373.44571     -373.34455      156.52805      1208.5477      1000         
       108   0.10979695    -373.45437     -373.34458      169.88523     -1082.9644      1000         
       110   0.068588455   -373.40918     -373.34059      106.12468     -2488.2313      1000         
       112   0.098908331   -373.44108     -373.34217      153.03763     -1591.7833      1000         
       114   0.10233286    -373.4431      -373.34077      158.3363       692.30082      1000         
       116   0.08984486    -373.42769     -373.33784      139.01402      1677.6808      1000         
       118   0.12328094    -373.46308     -373.3398       190.74857      314.53485      1000         
       120   0.082809037   -373.41828     -373.33547      128.12772     -1154.1326      1000         
       122   0.084407099   -373.4194      -373.33499      130.60035     -782.44112      1000         
       124   0.11141791    -373.44725     -373.33584      172.39329      1203.9914      1000         
       126   0.087853235   -373.41902     -373.33117      135.93244      2477.0699      1000         
       128   0.12868302    -373.46178     -373.33309      199.10703      1068.6954      1000         
       130   0.11503053    -373.44514     -373.33011      177.98298     -1390.9898      1000         
       132   0.086700908   -373.41377     -373.32706      134.14948     -2256.8161      1000         
       134   0.1171196     -373.44597     -373.32885      181.21533     -854.86594      1000         
       136   0.086377754   -373.41085     -373.32447      133.64948      1109.5576      1000         
       138   0.1037256     -373.42792     -373.3242       160.49123      967.02659      1000         
       140   0.1328562     -373.45696     -373.3241       205.56406     -942.25743      1000         
       142   0.098957073   -373.41809     -373.31913      153.11305     -1880.2259      1000         
       144   0.12913196    -373.44926     -373.32013      199.80166     -564.61786      1000         
       146   0.11876791    -373.43656     -373.31779      183.7657       1887.4217      1000         
       148   0.091985168   -373.40577     -373.31379      142.32565      2629.9185      1000         
       150   0.1357807     -373.45175     -373.31597      210.08905      666.26822      1000         
       152   0.10590513    -373.41663     -373.31072      163.86355     -1435.9832      1000         
       154   0.11997114    -373.42975     -373.30978      185.62742     -1504.2939      1000         
       156   0.14730265    -373.45738     -373.31008      227.91657      293.35648      1000         
       158   0.097829348   -373.40152     -373.30369      151.36815      1570.1123      1000         
       160   0.13149559    -373.43713     -373.30563      203.45884      216.47722      1000         
       162   0.12361107    -373.42574     -373.30213      191.25937     -1996.5364      1000         
       164   0.10980942    -373.40832     -373.29851      169.90452     -2347.4935      1000         
       166   0.16398777    -373.46416     -373.30017      253.73292     -335.40595      1000         
       168   0.13049508    -373.42509     -373.29459      201.91078      2108.9504      1000         
       170   0.1289514     -373.42209     -373.29314      199.52229      2085.2876      1000         
       172   0.14396917    -373.43669     -373.29272      222.7588      -45.435591      1000         
       174   0.099694926   -373.38656     -373.28687      154.2547      -1335.6109      1000         
       176   0.14964936    -373.4378      -373.28815      231.54756     -432.68041      1000         
       178   0.16037749    -373.44603     -373.28565      248.14684      1594.9367      1000         
       180   0.13470222    -373.41501     -373.2803       208.42034      1894.2337      1000         
       182   0.17483394    -373.45723     -373.28239      270.51485     -464.06444      1000         
       184   0.12241466    -373.39821     -373.27579      189.4082      -2603.5528      1000         
       186   0.13337307    -373.40818     -373.27481      206.3638      -2314.5254      1000         
       188   0.17414287    -373.44962     -373.27548      269.44557      82.221446      1000         
       190   0.1303302     -373.39851     -373.26818      201.65566      1948.4925      1000         
       192   0.17532695    -373.44591     -373.27058      271.27767      956.38893      1000         
       194   0.15493348    -373.42105     -373.26611      239.72351     -1019.1381      1000         
       196   0.12607661    -373.38805     -373.26198      195.07423     -1250.7232      1000         
       198   0.1850246     -373.44935     -373.26433      286.28252      657.98136      1000         
       200   0.15377169    -373.41196     -373.25819      237.92591      2709.621       1000         
       202   0.17429379    -373.43186     -373.25756      269.67908      1951.3572      1000         
       204   0.19574337    -373.45271     -373.25697      302.86731     -933.71169      1000         
       206   0.13353563    -373.38393     -373.25039      206.61532     -2625.1395      1000         
       208   0.17485174    -373.42714     -373.25229      270.54238     -1706.8788      1000         
       210   0.16967371    -373.41964     -373.24997      262.53058      695.12791      1000         
       212   0.14492207    -373.38987     -373.24494      224.23318      1465.2545      1000         
       214   0.20818725    -373.45676     -373.24857      322.12133     -425.82957      1000         
       216   0.15877993    -373.40059     -373.24181      245.675       -1989.1497      1000         
       218   0.17470602    -373.41609     -373.24138      270.31691     -1175.5002      1000         
       220   0.21005838    -373.45313     -373.24307      325.01646      1508.1134      1000         
       222   0.14645504    -373.38172     -373.23527      226.6051       3229.284       1000         
       224   0.20142404    -373.44126     -373.23984      311.65684      1592.5835      1000         
       226   0.17976248    -373.41545     -373.23568      278.14061     -1183.7398      1000         
       228   0.15623639    -373.38877     -373.23254      241.73946     -2096.004       1000         
       230   0.21954491    -373.45609     -373.23655      339.69467     -585.2936       1000         
       232   0.16738636    -373.39795     -373.23056      258.99144      1421.7054      1000         
       234   0.18579926    -373.41769     -373.23189      287.48113      814.63748      1000         
       236   0.2068156     -373.4394      -373.23258      319.99903     -1640.8263      1000         
       238   0.15076096    -373.37805     -373.22729      233.26751     -2646.7462      1000         
       240   0.20870492    -373.43986     -373.23115      322.92231     -994.86904      1000         
       242   0.1964755     -373.42666     -373.23018      304.00012      1975.3119      1000         
       244   0.15769207    -373.384       -373.22631      243.99179      2903.4741      1000         
       246   0.21141579    -373.44323     -373.23181      327.11675      759.42732      1000         
       248   0.15407458    -373.38052     -373.22644      238.39456     -1334.5442      1000         
       250   0.18467381    -373.41285     -373.22818      285.73975     -1208.6212      1000         
       252   0.23046768    -373.4626      -373.23213      356.59511      820.30742      1000         
       254   0.16847183    -373.39457     -373.2261       260.67096      2057.0954      1000         
       256   0.21521072    -373.44808     -373.23287      332.98852      218.97958      1000         
       258   0.17040482    -373.40068     -373.23028      263.66181     -2330.7572      1000         
       260   0.14533892    -373.37454     -373.2292       224.87816     -2721.293       1000         
       262   0.21659361    -373.45227     -373.23567      335.12822     -560.39229      1000         
       264   0.17280005    -373.40466     -373.23186      267.36787      2006.1727      1000         
       266   0.19827582    -373.43441     -373.23614      306.7857       1762.9517      1000         
       268   0.19779157    -373.43637     -373.23857      306.03643     -469.04205      1000         
       270   0.12902959    -373.36453     -373.2355       199.64327     -1517.1212      1000         
       272   0.18428427    -373.42585     -373.24156      285.13703     -210.60177      1000         
       274   0.17820894    -373.42078     -373.24257      275.73686      2170.276       1000         
       276   0.17072667    -373.41322     -373.2425       264.15981      2414.7874      1000         
       278   0.22088332    -373.47102     -373.25013      341.76555     -183.50922      1000         
       280   0.1454969     -373.39302     -373.24752      225.12259     -2427.0232      1000         
       282   0.15492697    -373.40645     -373.25152      239.71344     -2210.505       1000         
       284   0.17406444    -373.43123     -373.25716      269.32422      93.574858      1000         
       286   0.12454984    -373.37847     -373.25392      192.71189      1682.2527      1000         
       288   0.19584012    -373.45908     -373.26324      303.01702      357.55413      1000         
       290   0.16685948    -373.43066     -373.2638       258.17622     -1606.7239      1000         
       292   0.14411848    -373.40969     -373.26557      222.98981     -1613.0877      1000         
       294   0.18443384    -373.45845     -373.27402      285.36845      596.93452      1000         
       296   0.11912424    -373.39144     -373.27231      184.31705      2846.7199      1000         
       298   0.14510006    -373.42364     -373.27854      224.50858      2166.1479      1000         
       300   0.15593936    -373.43906     -373.28312      241.27989     -494.88088      1000         
       302   0.11236156    -373.39531     -373.28295      173.85338     -2024.7055      1000         
       304   0.16101234    -373.45174     -373.29073      249.12914     -1172.5514      1000         
       306   0.13507701    -373.42855     -373.29347      209.00024      903.53087      1000         
       308   0.1146821     -373.40989     -373.29521      177.44387      1227.8311      1000         
       310   0.15353047    -373.45669     -373.30316      237.55268     -778.61932      1000         
       312   0.10675082    -373.40983     -373.30308      165.17206     -2289.0631      1000         
       314   0.13029943    -373.43871     -373.30841      201.60805     -1493.0287      1000         
       316   0.14094059    -373.45571     -373.31477      218.07277      1062.3383      1000         
       318   0.087375423   -373.40111     -373.31373      135.19314      2650.7825      1000         
       320   0.1241688     -373.44565     -373.32148      192.12233      1360.8737      1000         
       322   0.096992235   -373.41957     -373.32258      150.07292     -786.56399      1000         
       324   0.093317333   -373.41794     -373.32462      144.38686     -1342.1115      1000         
       326   0.13751636    -373.46941     -373.3319       212.77457      75.183591      1000         
       328   0.095972744   -373.42763     -373.33166      148.49549      1589.672       1000         
       330   0.10810428    -373.44494     -373.33684      167.26622      768.84193      1000         
       332   0.10050156    -373.44067     -373.34016      155.50279     -1458.6603      1000         
       334   0.06508072    -373.40488     -373.3398       100.69727     -2412.8671      1000         
       336   0.10658198    -373.45203     -373.34544      164.91081     -1078.1869      1000         
       338   0.093109149   -373.43993     -373.34682      144.06475      1261.8998      1000         
       340   0.08572055    -373.43406     -373.34834      132.63261      1875.0401      1000         
       342   0.10715304    -373.46044     -373.35329      165.79439      291.86009      1000         
       344   0.066305575   -373.41858     -373.35228      102.59245     -1087.5154      1000         
       346   0.085293552   -373.44085     -373.35555      131.97193     -631.51681      1000         
       348   0.096105196   -373.45482     -373.35872      148.70043      1170.8721      1000         
       350   0.068681213   -373.42632     -373.35763      106.2682       1968.7557      1000         
       352   0.097220833   -373.45972     -373.3625       150.42662      364.00638      1000         
       354   0.06847246    -373.43053     -373.36206      105.9452      -1723.1022      1000         
       356   0.060566852   -373.42322     -373.36265      93.713112     -2072.2755      1000         
       358   0.091717035   -373.45833     -373.36661      141.91077     -433.65411      1000         
       360   0.066341538   -373.43126     -373.36492      102.64809      1296.7159      1000         
       362   0.088911763   -373.45706     -373.36815      137.57027      905.90873      1000         
       364   0.085732827   -373.45516     -373.36943      132.6516      -763.63877      1000         
       366   0.054452291   -373.42267     -373.36822      84.252251     -1358.3492      1000         
       368   0.080810526   -373.45251     -373.3717       125.03549     -43.140214      1000         
       370   0.06456112    -373.43567     -373.37111      99.893312      1879.735       1000         
       372   0.065130142   -373.43666     -373.37153      100.77374      1965.5436      1000         
       374   0.089668665   -373.46409     -373.37442      138.7414       3.5397206      1000         
       376   0.058226053   -373.43075     -373.37253      90.09127      -1632.2253      1000         
       378   0.072210323   -373.44672     -373.37451      111.72867     -1342.6314      1000         
       380   0.075530938   -373.45135     -373.37582      116.86655      359.57952      1000         
       382   0.052191515   -373.42614     -373.37395      80.754226      1209.0723      1000         
       384   0.084113343   -373.46148     -373.37737      130.14583     -60.630262      1000         
       386   0.066253626   -373.44236     -373.37611      102.51207     -1633.2878      1000         
       388   0.062365251   -373.43858     -373.37621      96.495715     -1497.0483      1000         
       390   0.083476922   -373.46235     -373.37887      129.16111      401.04907      1000         
       392   0.050280352   -373.42673     -373.37645      77.797146      2105.1779      1000         
       394   0.066128454   -373.44462     -373.37849      102.3184       1544.9138      1000         
       396   0.070318303   -373.44923     -373.37891      108.80121     -369.1729       1000         
       398   0.053892924   -373.43125     -373.37736      83.386761     -1284.4583      1000         
       400   0.086312146   -373.46644     -373.38013      133.54796     -355.51168      1000         
       402   0.069859051   -373.44891     -373.37905      108.09063      1174.0444      1000         
       404   0.060050766   -373.43883     -373.37877      92.914589      1038.6024      1000         
       406   0.074384766   -373.45524     -373.38086      115.09312     -840.23848      1000         
       408   0.043880639   -373.42236     -373.37848      67.895079     -2122.7409      1000         
       410   0.065202514   -373.4453      -373.38009      100.88572     -1371.686       1000         
       412   0.077605331   -373.45854     -373.38093      120.07619      714.43124      1000         
       414   0.058332926   -373.43718     -373.37884      90.256632      1811.9677      1000         
       416   0.083017024   -373.46466     -373.38164      128.44953      702.97728      1000         
       418   0.057454931   -373.43722     -373.37976      88.898138     -816.29936      1000         
       420   0.05326917    -373.43285     -373.37959      82.421646     -818.01335      1000         
       422   0.079649799   -373.46147     -373.38182      123.23953      703.55721      1000         
       424   0.054511159   -373.43369     -373.37918      84.343336      1871.6002      1000         
       426   0.073978869   -373.45508     -373.3811       114.46509      827.81666      1000         
       428   0.070850283   -373.45178     -373.38093      109.62433     -1306.0805      1000         
       430   0.045090605   -373.42408     -373.37899      69.767221     -2139.9103      1000         
       432   0.074077555   -373.4555      -373.38143      114.61778     -939.75134      1000         
       434   0.061742737   -373.44164     -373.37989      95.53252       926.94027      1000         
       436   0.065606897   -373.44524     -373.37964      101.51141      1137.4975      1000         
       438   0.087887053   -373.46941     -373.38152      135.98477     -356.07324      1000         
       440   0.052443423   -373.43109     -373.37865      81.143995     -1274.643       1000         
       442   0.065951041   -373.44606     -373.38011      102.04389     -365.09638      1000         
       444   0.067030179   -373.4475      -373.38047      103.71361      1561.9861      1000         
       446   0.044785966   -373.4227      -373.37791      69.295862      2201.007       1000         
       448   0.081882057   -373.46281     -373.38093      126.69343      521.2484       1000         
       450   0.064027572   -373.44258     -373.37855      99.06777      -1438.8788      1000         
       452   0.064298121   -373.4426      -373.3783       99.486382     -1677.5372      1000         
       454   0.085824582   -373.46605     -373.38023      132.79357     -194.6601       1000         
       456   0.049434406   -373.42628     -373.37684      76.488242      1103.0173      1000         
       458   0.070497823   -373.44943     -373.37893      109.07898      336.23777      1000         
       460   0.070785403   -373.44909     -373.3783       109.52394     -1325.9898      1000         
       462   0.051636258   -373.42788     -373.37625      79.895095     -1613.9816      1000         
       464   0.085248695   -373.46396     -373.37871      131.90252     -11.274536      1000         
       466   0.062685108   -373.43911     -373.37643      96.99062       1969.0719      1000         
       468   0.060475399   -373.43655     -373.37607      93.57161       1953.488       1000         
       470   0.081557299   -373.45912     -373.37756      126.19094      51.647259      1000         
       472   0.052143738   -373.42652     -373.37437      80.680302     -1309.4278      1000         
       474   0.080358866   -373.45643     -373.37607      124.33665     -815.92502      1000         
       476   0.081597194   -373.4575      -373.3759       126.25267      796.14486      1000         
       478   0.051824954   -373.42477     -373.37294      80.187059      1255.6388      1000         
       480   0.080372966   -373.45615     -373.37578      124.35846     -375.93969      1000         
       482   0.053601155   -373.42633     -373.37273      82.935316     -1979.8681      1000         
       484   0.063360753   -373.43603     -373.37267      98.036023     -1699.8749      1000         
       486   0.095943041   -373.47043     -373.37449      148.44953      275.29094      1000         
       488   0.06289596    -373.43336     -373.37046      97.316865      1863.6055      1000         
       490   0.085106151   -373.45787     -373.37276      131.68197      1148.301       1000         
       492   0.069908048   -373.44097     -373.37106      108.16644     -569.87779      1000         
       494   0.048531678   -373.41748     -373.36895      75.09148      -1039.7851      1000         
       496   0.090332276   -373.46191     -373.37157      139.76818      239.1896       1000         
       498   0.069963457   -373.43841     -373.36845      108.25217      1777.2066      1000         
       500   0.077549653   -373.44615     -373.3686       119.99004      1267.9765      1000         
       502   0.088966164   -373.45812     -373.36915      137.65444     -904.40202      1000         
       504   0.048089131   -373.41358     -373.36549      74.406742     -2201.1443      1000         
       506   0.078771959   -373.44615     -373.36737      121.88128     -1393.0397      1000         
       508   0.082592929   -373.4491      -373.36651      127.79334      633.38858      1000         
       510   0.069805339   -373.43356     -373.36376      108.00752      1408.0554      1000         
       512   0.10612777    -373.47249     -373.36636      164.20803      43.081843      1000         
       514   0.065095196   -373.42739     -373.3623       100.71967     -1266.2137      1000         
       516   0.066313581   -373.42862     -373.36231      102.60484     -792.74203      1000         
       518   0.087062598   -373.45069     -373.36362      134.70911      1162.1735      1000         
       520   0.056830629   -373.41593     -373.3591       87.932176      2388.3846      1000         
       522   0.10316005    -373.4653      -373.36214      159.61617      1064.3207      1000         
       524   0.091442873   -373.4508      -373.35936      141.48657     -1169.77        1000         
       526   0.070798753   -373.42793     -373.35713      109.5446      -1917.8032      1000         
       528   0.10135361    -373.46079     -373.35943      156.82112     -639.6461       1000         
       530   0.061706333   -373.41684     -373.35514      95.476193      1064.4279      1000         
       532   0.077997633   -373.43401     -373.35601      120.68319      744.80638      1000         
       534   0.098191736   -373.45419     -373.356        151.92887     -1084.4395      1000         
       536   0.067452803   -373.41954     -373.35209      104.36752     -1879.3008      1000         
       538   0.10457802    -373.45865     -373.35407      161.81015     -565.10542      1000         
       540   0.090652673   -373.44263     -373.35198      140.26392      1766.1519      1000         
       542   0.070840397   -373.4201      -373.34926      109.60903      2413.3358      1000         
       544   0.109165      -373.46078     -373.35162      168.90744      603.92968      1000         
       546   0.075365932   -373.42247     -373.3471       116.61124     -1232.9406      1000         
       548   0.095416887   -373.44289     -373.34748      147.63543     -1221.6045      1000         
       550   0.11315536    -373.4612      -373.34804      175.08159      431.0028       1000         
       552   0.068447025   -373.41133     -373.34289      105.90585      1453.1552      1000         
       554   0.10331427    -373.44915     -373.34583      159.8548       58.033956      1000         
       556   0.083044387   -373.42555     -373.34251      128.49187     -1939.7776      1000         
       558   0.076825164   -373.41742     -373.34059      118.86907     -2167.3024      1000         
       560   0.1253827     -373.46834     -373.34295      194.00056     -241.63658      1000         
       562   0.09104863    -373.4289      -373.33785      140.87657      1953.5348      1000         
       564   0.10754252    -373.44633     -373.33879      166.39703      1777.4401      1000         
       566   0.10914611    -373.44693     -373.33779      168.87822     -156.01091      1000         
       568   0.069503737   -373.40323     -373.33372      107.54086     -1220.9013      1000         
       570   0.1123463     -373.44841     -373.33607      173.82977     -278.57969      1000         
       572   0.1020675     -373.4354      -373.33333      157.9257       1592.241       1000         
       574   0.095419004   -373.42656     -373.33114      147.63871      1692.7142      1000         
       576   0.12984132    -373.46266     -373.33281      200.89924     -501.93549      1000         
       578   0.086065765   -373.41395     -373.32788      133.16675     -2352.6065      1000         
       580   0.10562502    -373.43405     -373.32842      163.43015     -1975.9192      1000         
       582   0.12289518    -373.45156     -373.32867      190.15169      246.65157      1000         
       584   0.086749671   -373.41041     -373.32366      134.22493      1745.5003      1000         
       586   0.12807487    -373.45468     -373.3266       198.16606      662.41265      1000         
       588   0.10088438    -373.42368     -373.32279      156.0951      -1103.0243      1000         
       590   0.089515227   -373.41041     -373.32089      138.50399     -1197.8856      1000         
       592   0.13185068    -373.45503     -373.32317      204.00825      671.94232      1000         
       594   0.098364029   -373.41628     -373.31791      152.19545      2488.9357      1000         
       596   0.12826654    -373.44765     -373.31939      198.46263      1666.0757      1000         
       598   0.13261223    -373.45069     -373.31808      205.18657     -867.61161      1000         
       600   0.093119103   -373.40712     -373.314        144.08015     -2245.0565      1000         
       602   0.13078741    -373.44716     -373.31637      202.36309     -1262.1105      1000         
       604   0.11025992    -373.42357     -373.31331      170.60158      862.41005      1000         
       606   0.10439276    -373.41593     -373.31154      161.52351      1248.4787      1000         
       608   0.14121834    -373.45454     -373.31332      218.50253     -593.07641      1000         
       610   0.10150287    -373.41004     -373.30854      157.05208     -1973.604       1000         
       612   0.1246064     -373.43399     -373.30938      192.79941     -1113.7897      1000         
       614   0.13597757    -373.44545     -373.30947      210.39365      1388.8465      1000         
       616   0.097868195   -373.40254     -373.30467      151.42826      2769.3477      1000         
       618   0.1430154     -373.45092     -373.3079       221.28306      1231.3373      1000         
       620   0.12020023    -373.42442     -373.30422      185.98189     -1100.6517      1000         
       622   0.11571651    -373.41838     -373.30266      179.04437     -1669.1889      1000         
       624   0.15483266    -373.45995     -373.30512      239.56752     -105.7801       1000         
       626   0.1071054     -373.40699     -373.29988      165.72069      1545.8324      1000         
       628   0.12679223    -373.42837     -373.30158      196.18147      689.41316      1000         
       630   0.13180896    -373.43261     -373.30081      203.9437      -1628.2662      1000         
       632   0.1040558     -373.4012      -373.29714      161.00215     -2502.4223      1000         
       634   0.15844098    -373.45851     -373.30007      245.15055     -896.72264      1000         
       636   0.1438292     -373.44122     -373.29739      222.54222      1708.7158      1000         
       638   0.12697284    -373.42257     -373.2956       196.46092      2282.868       1000         
       640   0.14593389    -373.44367     -373.29773      225.79874      364.75942      1000         
       642   0.094375634   -373.38756     -373.29318      146.02434     -1258.6955      1000         
       644   0.12482426    -373.41951     -373.29469      193.13651     -769.91065      1000         
       646   0.15368003    -373.44923     -373.29555      237.78408      1239.1884      1000         
       648   0.1263856     -373.41765     -373.29126      195.55231      2081.3772      1000         
       650   0.16639111    -373.46129     -373.2949       257.45154      136.00625      1000         
       652   0.12692165    -373.41833     -373.2914       196.38172     -2246.7451      1000         
       654   0.11303872    -373.40335     -373.29031      174.90113     -2493.3972      1000         
       656   0.15563112    -373.44908     -373.29345      240.80294     -409.71924      1000         
       658   0.12058951    -373.40962     -373.28903      186.58421      1741.4426      1000         
       660   0.15154273    -373.44301     -373.29147      234.47712      1272.5665      1000         
       662   0.15070956    -373.44195     -373.29124      233.18797     -737.83769      1000         
       664   0.10410438    -373.39186     -373.28776      161.07731     -1424.4943      1000         
       666   0.14596265    -373.4372      -373.29124      225.84325      108.64454      1000         
       668   0.13289811    -373.42217     -373.28927      205.6289       2311.4715      1000         
       670   0.13666114    -373.42503     -373.28837      211.45132      2234.725       1000         
       672   0.17487794    -373.4666      -373.29172      270.58293     -329.13571      1000         
       674   0.11844689    -373.40587     -373.28742      183.26901     -2319.5652      1000         
       676   0.13417172    -373.42364     -373.28947      207.59953     -1876.6776      1000         
       678   0.14199426    -373.43287     -373.29088      219.70308      345.96996      1000         
       680   0.10415602    -373.39098     -373.28682      161.15721      1556.4236      1000         
       682   0.16133899    -373.45322     -373.29188      249.63455      67.108861      1000         
       684   0.1387828     -373.42801     -373.28923      214.73409     -1769.8558      1000         
       686   0.13199242    -373.42079     -373.2888       204.22756     -1534.5824      1000         
       688   0.16854813    -373.46139     -373.29284      260.78901      768.25045      1000         
       690   0.11225453    -373.40088     -373.28862      173.68777      2794.7389      1000         
       692   0.13566507    -373.42751     -373.29184      209.91013      1892.3039      1000         
       694   0.14180958    -373.43435     -373.29254      219.41733     -693.07465      1000         
       696   0.10672156    -373.39652     -373.2898       165.12679     -1922.281       1000         
       698   0.15815124    -373.45245     -373.2943       244.70225     -811.78824      1000         
       700   0.13496409    -373.42795     -373.29299      208.82553      1201.193       1000         
       702   0.12200837    -373.41443     -373.29242      188.77957      1201.6395      1000         
       704   0.15587793    -373.45255     -373.29667      241.18482     -1007.2004      1000         
       706   0.10675142    -373.39991     -373.29316      165.17299     -2433.3436      1000         
       708   0.13842879    -373.43455     -373.29612      214.18635     -1421.2982      1000         
       710   0.15485368    -373.45356     -373.29871      239.60005      1204.6695      1000         
       712   0.1074625     -373.40256     -373.2951       166.27322      2594.268       1000         
       714   0.14877431    -373.44964     -373.30087      230.19363      1069.3208      1000         
       716   0.1141844     -373.41296     -373.29878      176.67379     -1023.286       1000         
       718   0.11042754    -373.40953     -373.2991       170.86093     -1268.4886      1000         
       720   0.1574413     -373.46156     -373.30412      243.60378      422.91628      1000         
       722   0.11025643    -373.41097     -373.30071      170.59617      1916.0926      1000         
       724   0.13573073    -373.44067     -373.30494      210.01172      758.94036      1000         
       726   0.13081031    -373.43682     -373.30601      202.39852     -1694.4374      1000         
       728   0.093314118   -373.3974      -373.30409      144.38189     -2547.503       1000         
       730   0.14657463    -373.45595     -373.30938      226.79014     -984.25449      1000         
       732   0.12573162    -373.43467     -373.30894      194.54043      1437.4469      1000         
       734   0.11415918    -373.42365     -373.30949      176.63477      1795.0271      1000         
       736   0.13597334    -373.45        -373.31403      210.38711     -78.928228      1000         
       738   0.081898256   -373.39314     -373.31124      126.7185      -1367.5103      1000         
       740   0.1150042     -373.4298      -373.3148       177.94224     -557.49869      1000         
       742   0.13496807    -373.45284     -373.31787      208.83169      1562.6138      1000         
       744   0.10513363    -373.42081     -373.31567      162.66983      2322.4504      1000         
       746   0.14748674    -373.46972     -373.32224      228.20141      354.33592      1000         
       748   0.099852987   -373.42058     -373.32073      154.49927     -1894.4118      1000         
       750   0.08785508    -373.40968     -373.32182      135.9353      -2124.5455      1000         
       752   0.1229764     -373.44992     -373.32695      190.27737     -299.21115      1000         
       754   0.083761236   -373.40798     -373.32422      129.60102      1416.4145      1000         
       756   0.12359277    -373.4531      -373.32951      191.23105      670.66718      1000         
       758   0.11845066    -373.44949     -373.33104      183.27484     -1201.799       1000         
       760   0.082792338   -373.413       -373.33021      128.10188     -1606.5667      1000         
       762   0.12193621    -373.45777     -373.33583      188.66792      82.010466      1000         
       764   0.089010067   -373.42439     -373.33538      137.72237      2273.0533      1000         
       766   0.089136575   -373.42614     -373.337        137.91811      2213.8778      1000         
       768   0.1178678     -373.45953     -373.34166      182.373       -36.528761      1000         
       770   0.074473247   -373.41441     -373.33994      115.23002     -1699.8349      1000         
       772   0.10194596    -373.44602     -373.34408      157.73765     -1268.7902      1000         
       774   0.10043181    -373.44724     -373.34681      155.39486      554.65385      1000         
       776   0.06937259    -373.41476     -373.34538      107.33794      1245.9799      1000         
       778   0.1113824     -373.46291     -373.35153      172.33835     -356.20516      1000         
       780   0.078845379   -373.42949     -373.35064      121.99488     -1973.9256      1000         
       782   0.0828052     -373.43537     -373.35256      128.12178     -1624.0098      1000         
       784   0.10954371    -373.46718     -373.35764      169.49341      539.74728      1000         
       786   0.061993583   -373.41746     -373.35546      95.920645      2310.1442      1000         
       788   0.085991045   -373.44624     -373.36025      133.05114      1535.3251      1000         
       790   0.076053528   -373.43733     -373.36128      117.67514     -467.02387      1000         
       792   0.058298608   -373.41923     -373.36093      90.203532     -1259.9706      1000         
       794   0.10237313    -373.46855     -373.36617      158.3986      -168.42452      1000         
       796   0.076230612   -373.44205     -373.36582      117.94914      1389.4662      1000         
       798   0.076791418   -373.4448      -373.36801      118.81685      1014.9927      1000         
       800   0.085978795   -373.45744     -373.37146      133.03218     -1032.7127      1000         
       802   0.045127087   -373.41504     -373.36991      69.823668     -2238.6101      1000         
       804   0.073745353   -373.44725     -373.37351      114.10378     -1332.5984      1000         
       806   0.075736727   -373.45104     -373.3753       117.18496      826.94509      1000         
       808   0.059986341   -373.43471     -373.37472      92.814906      1763.9476      1000         
       810   0.090077924   -373.46959     -373.37951      139.37463      492.81813      1000         
       812   0.054096359   -373.43244     -373.37834      83.701529     -938.81232      1000         
       814   0.057185772   -373.43711     -373.37993      88.481677     -759.21213      1000         
       816   0.076659044   -373.45999     -373.38333      118.61204      878.32958      1000         
       818   0.047160821   -373.42855     -373.38139      72.970398      1952.0953      1000         
       820   0.07722178    -373.46272     -373.3855       119.48274      742.44482      1000         
       822   0.063921013   -373.44971     -373.38579      98.902895     -1332.4446      1000         
       824   0.044232656   -373.42963     -373.38539      68.439744     -2010.9839      1000         
       826   0.071438497   -373.46057     -373.38913      110.53445     -732.20659      1000         
       828   0.046012173   -373.43376     -373.38775      71.193132      1014.2239      1000         
       830   0.059320419   -373.44891     -373.38959      91.784546      967.92347      1000         
       832   0.07388859    -373.46565     -373.39176      114.3254      -567.8519       1000         
       834   0.04441659    -373.43467     -373.39026      68.724339     -1359.961       1000         
       836   0.066121789   -373.4593      -373.39318      102.30808     -343.24305      1000         
       838   0.055332719   -373.4489      -373.39356      85.614509      1556.5968      1000         
       840   0.040479157   -373.43327     -373.39279      62.632077      2033.7016      1000         
       842   0.068216164   -373.46425     -373.39603      105.54864      393.00915      1000         
       844   0.044266552   -373.43874     -373.39447      68.492191     -1317.6283      1000         
       846   0.053374166   -373.44909     -373.39572      82.584103     -1360.2982      1000         
       848   0.06529381    -373.46308     -373.39778      101.02698      109.73955      1000         
       850   0.036190051   -373.4318      -373.39561      55.995684      1135.12        1000         
       852   0.061272152   -373.45984     -373.39857      94.804399      172.32644      1000         
       854   0.052818721   -373.45089     -373.39807      81.724682     -1418.3912      1000         
       856   0.04427188    -373.44186     -373.39758      68.500433     -1601.4097      1000         
       858   0.068836601   -373.46921     -373.40037      106.50862     -8.7703397      1000         
       860   0.040505391   -373.43899     -373.39848      62.672669      1773.7866      1000         
       862   0.046040163   -373.44574     -373.3997       71.23644       1619.8604      1000         
       864   0.054776743   -373.4555      -373.40072      84.754266     -68.48843       1000         
       866   0.03607415    -373.4351      -373.39902      55.816354     -1116.7019      1000         
       868   0.064932331   -373.46629     -373.40135      100.46768     -464.82473      1000         
       870   0.058454664   -373.45949     -373.40103      90.444992      1002.5934      1000         
       872   0.043515259   -373.4437      -373.40018      67.329739      1161.4645      1000         
       874   0.058155044   -373.46049     -373.40234      89.9814       -476.79606      1000         
       876   0.031549785   -373.43189     -373.40034      48.815951     -1898.3904      1000         
       878   0.044947128   -373.44624     -373.4013       69.545223     -1519.3755      1000         
       880   0.062174674   -373.46476     -373.40258      96.200842      320.78818      1000         
       882   0.042428731   -373.44288     -373.40045      65.64859       1578.9459      1000         
       884   0.062836578   -373.46559     -373.40275      97.224985      802.44314      1000         
       886   0.045588777   -373.44713     -373.40154      70.538025     -652.31696      1000         
       888   0.035532424   -373.43637     -373.40084      54.978159     -861.52286      1000         
       890   0.06160748    -373.46457     -373.40296      95.323242      460.40583      1000         
       892   0.044080003   -373.44497     -373.40089      68.203549      1741.0343      1000         
       894   0.056586475   -373.45861     -373.40202      87.554405      1074.4451      1000         
       896   0.057991209   -373.46035     -373.40236      89.727903     -894.16039      1000         
       898   0.030117914   -373.43046     -373.40034      46.600464     -1934.7433      1000         
       900   0.051516389   -373.45376     -373.40224      79.709626     -1075.4369      1000         
       902   0.046504447   -373.44786     -373.40135      71.954812      659.1483       1000         
       904   0.046368038   -373.44695     -373.40058      71.743751      1089.5435      1000         
       906   0.071035135   -373.47349     -373.40246      109.91034     -205.09958      1000         
       908   0.043106023   -373.44313     -373.40002      66.696542     -1239.4578      1000         
       910   0.04848873    -373.44928     -373.40079      75.025028     -600.23195      1000         
       912   0.053166045   -373.45461     -373.40144      82.262084      1207.8183      1000         
       914   0.031408812   -373.43044     -373.39903      48.597828      2099.3522      1000         
       916   0.06184743    -373.46323     -373.40138      95.694508      799.97542      1000         
       918   0.052467271   -373.45225     -373.39978      81.180894     -1092.2974      1000         
       920   0.046403779   -373.4454      -373.399        71.799052     -1554.1631      1000         
       922   0.066877707   -373.46764     -373.40076      103.47769     -317.0075       1000         
       924   0.038548577   -373.43665     -373.3981       59.644955      998.9121       1000         
       926   0.050597938   -373.4498      -373.3992       78.288536      489.9287       1000         
       928   0.05757786    -373.45686     -373.39928      89.088342     -1118.1618      1000         
       930   0.037453468   -373.43458     -373.39712      57.950527     -1647.5943      1000         
       932   0.063890164   -373.46291     -373.39902      98.855164     -332.88234      1000         
       934   0.051261511   -373.44886     -373.39759      79.315262      1605.6751      1000         
       936   0.043453903   -373.44002     -373.39656      67.234805      1906.7204      1000         
       938   0.066182097   -373.46446     -373.39828      102.4014       278.73705      1000         
       940   0.041125447   -373.43663     -373.39551      63.63206      -1126.9948      1000         
       942   0.058105208   -373.45454     -373.39643      89.904291     -842.96747      1000         
       944   0.066888474   -373.46371     -373.39683      103.49435      651.21307      1000         
       946   0.039899738   -373.43388     -373.39398      61.735561      1300.9932      1000         
       948   0.063793494   -373.46008     -373.39629      98.705589     -69.974319      1000         
       950   0.045619496   -373.43977     -373.39415      70.585556     -1733.7081      1000         
       952   0.043512786   -373.43697     -373.39346      67.325912     -1746.7584      1000         
       954   0.07270792    -373.46799     -373.39528      112.49859     -33.446483      1000         
       956   0.046801793   -373.43893     -373.39213      72.414885      1599.8051      1000         
       958   0.062540018   -373.45597     -373.39343      96.766127      1183.0947      1000         
       960   0.062156325   -373.45505     -373.39289      96.172451     -435.13443      1000         
       962   0.037921095   -373.42844     -373.39052      58.674072     -1053.5402      1000         
       964   0.069118765   -373.46173     -373.39261      106.94521      40.159996      1000         
       966   0.055884148   -373.44657     -373.39069      86.467717      1610.9949      1000         
       968   0.052636285   -373.44246     -373.38983      81.442405      1444.3366      1000         
       970   0.073221249   -373.4645      -373.39128      113.29285     -519.90649      1000         
       972   0.039979418   -373.42801     -373.38803      61.858847     -1957.8605      1000         
       974   0.059095626   -373.44824     -373.38915      91.436732     -1458.739       1000         
       976   0.069272045   -373.45853     -373.38926      107.18237      364.44402      1000         
       978   0.04895701    -373.43522     -373.38626      75.749582      1295.1503      1000         
       980   0.081086262   -373.46989     -373.3888       125.46212      167.59423      1000         
       982   0.05480912    -373.44074     -373.38593      84.804361     -1190.3313      1000         
       984   0.048265671   -373.43355     -373.38529      74.679896     -945.63762      1000         
       986   0.071930003   -373.45897     -373.38704      111.29494      831.8377       1000         
       988   0.041869529   -373.42517     -373.3833       64.783354      2220.8342      1000         
       990   0.07106705    -373.45636     -373.3853       109.95973      1292.6825      1000         
       992   0.07365128    -373.4578      -373.38415      113.95822     -813.03477      1000         
       994   0.052134832   -373.43384     -373.38171      80.666522     -1738.2483      1000         
       996   0.082420869   -373.46628     -373.38386      127.52712     -744.99738      1000         
       998   0.056180944   -373.43731     -373.38112      86.926939      879.02801      1000         
      1000   0.054611534   -373.43527     -373.38066      84.498642      824.8761       1000         
      1002   0.078225604   -373.46012     -373.38189      121.03592     -856.03398      1000         
      1004   0.048373716   -373.42679     -373.37842      74.84707      -1811.8754      1000         
      1006   0.07507939    -373.45492     -373.37984      116.16789     -802.98415      1000         
      1008   0.076621936   -373.456       -373.37937      118.55462      1357.5523      1000         
      1010   0.050070219   -373.42627     -373.3762       77.472015      2256.44        1000         
      1012   0.083407937   -373.46233     -373.37892      129.05438      798.96983      1000         
      1014   0.057093823   -373.43264     -373.37555      88.339408     -976.02851      1000         
      1016   0.06553525    -373.44088     -373.37535      101.40055     -1148.6319      1000         
      1018   0.093151554   -373.47004     -373.37689      144.13036      280.30595      1000         
      1020   0.054190747   -373.42672     -373.37253      83.847573      1383.9308      1000         
      1022   0.076396901   -373.45119     -373.37479      118.20643      295.55443      1000         
      1024   0.065458155   -373.43847     -373.37301      101.28127     -1641.65        1000         
      1026   0.049555586   -373.42041     -373.37085      76.675739     -2100.1933      1000         
      1028   0.094677856   -373.46803     -373.37335      146.49195     -511.7321       1000         
      1030   0.074030746   -373.44405     -373.37002      114.54535      1587.9107      1000         
      1032   0.078685881   -373.44866     -373.36998      121.74809      1704.293       1000         
      1034   0.088217974   -373.45868     -373.37046      136.49679     -0.75784556     1000         
      1036   0.045648376   -373.41236     -373.36671      70.630241     -1110.2203      1000         
      1038   0.075662044   -373.44429     -373.36863      117.06941     -386.76709      1000         
      1040   0.078715631   -373.44638     -373.36766      121.79412      1359.3296      1000         
      1042   0.066923377   -373.43195     -373.36503      103.54836      1712.3289      1000         
      1044   0.10311234    -373.47064     -373.36753      159.54236     -174.22124      1000         
      1046   0.064006294   -373.42756     -373.36355      99.034848     -2017.331       1000         
      1048   0.068697343   -373.43228     -373.36358      106.29316     -1906.9086      1000         
      1050   0.092623231   -373.45754     -373.36491      143.3129       10.730325      1000         
      1052   0.061101843   -373.42159     -373.36049      94.540885      1539.0088      1000         
      1054   0.098952897   -373.46224     -373.36328      153.10658      725.99403      1000         
      1056   0.084190637   -373.44505     -373.36086      130.26542     -967.65954      1000         
      1058   0.062295535   -373.42099     -373.3587       96.387847     -1248.954       1000         
      1060   0.096183603   -373.45738     -373.3612       148.82175      355.45585      1000         
      1062   0.064070615   -373.42131     -373.35724      99.134369      2181.5394      1000         
      1064   0.083016041   -373.4411      -373.35809      128.44801      1731.7036      1000         
      1066   0.10276743    -373.46106     -373.35829      159.00869     -526.52672      1000         
      1068   0.067390395   -373.42189     -373.3545       104.27096     -1949.3701      1000         
      1070   0.097662273   -373.45417     -373.35651      151.10965     -1238.2416      1000         
      1072   0.084725306   -373.43955     -373.35483      131.0927       699.15125      1000         
      1074   0.067400206   -373.41985     -373.35245      104.28614      1258.0031      1000         
      1076   0.10518753    -373.46017     -373.35498      162.75323     -371.86061      1000         
      1078   0.072251413   -373.42325     -373.35099      111.79225     -1830.0668      1000         
      1080   0.087240069   -373.43859     -373.35135      134.98371     -1283.6037      1000         
      1082   0.1069967     -373.45938     -373.35238      165.55249      950.13576      1000         
      1084   0.067490005   -373.4152      -373.34771      104.42508      2468.6698      1000         
      1086   0.10492039    -373.45564     -373.35072      162.33989      1327.2019      1000         
      1088   0.09086082    -373.43898     -373.34811      140.58598     -815.25134      1000         
      1090   0.078369851   -373.4246      -373.34623      121.25911     -1505.5484      1000         
      1092   0.11533144    -373.46411     -373.34878      178.44857     -193.10091      1000         
      1094   0.074541687   -373.41899     -373.34445      115.33592      1430.735       1000         
      1096   0.085949143   -373.43137     -373.34542      132.9863       856.2718       1000         
      1098   0.099813087   -373.4453      -373.34549      154.43753     -1307.0664      1000         
      1100   0.072156615   -373.41406     -373.34191      111.64557     -2361.4491      1000         
      1102   0.11765675    -373.46192     -373.34426      182.04644     -1113.2557      1000         
      1104   0.10956838    -373.45201     -373.34244      169.53158      1306.7928      1000         
      1106   0.085886411   -373.42586     -373.33998      132.88924      2113.1994      1000         
      1108   0.10980639    -373.45211     -373.34231      169.89984      507.91878      1000         
      1110   0.068801569   -373.40708     -373.33828      106.45442     -1081.7932      1000         
      1112   0.08973003    -373.42875     -373.33902      138.83634     -795.92092      1000         
      1114   0.11842357    -373.45854     -373.34012      183.23292      1035.9875      1000         
      1116   0.087606983   -373.42333     -373.33573      135.55142      2025.9059      1000         
      1118   0.12162766    -373.46029     -373.33866      188.1905       408.03134      1000         
      1120   0.094411211   -373.4302      -373.33579      146.07938     -1909.0649      1000         
      1122   0.078303247   -373.41237     -373.33407      121.15606     -2408.5262      1000         
      1124   0.12158184    -373.45837     -373.33679      188.1196      -657.34069      1000         
      1126   0.093030062   -373.42576     -373.33273      143.94238      1432.3779      1000         
      1128   0.11057356    -373.44445     -373.33387      171.08685      1248.848       1000         
      1130   0.11439427    -373.44819     -373.33379      176.99851     -564.64385      1000         
      1132   0.072123258   -373.40223     -373.33011      111.59396     -1347.1587      1000         
      1134   0.1097656     -373.44245     -373.33269      169.83672     -43.882414      1000         
      1136   0.10386913    -373.43478     -373.33091      160.71331      2085.9085      1000         
      1138   0.10000028    -373.42902     -373.32902      154.72716      2269.7778      1000         
      1140   0.13830152    -373.46996     -373.33166      213.98942     -22.935779      1000         
      1142   0.092143429   -373.41949     -373.32735      142.57052     -2059.3302      1000         
      1144   0.10089718    -373.42906     -373.32817      156.11491     -1885.7093      1000         
      1146   0.11361205    -373.44279     -373.32918      175.78822      104.34487      1000         
      1148   0.078586194   -373.4035      -373.32491      121.59385      1387.9993      1000         
      1150   0.12515489    -373.45363     -373.32847      193.64807      162.22434      1000         
      1152   0.10874374    -373.43448     -373.32574      168.25563     -1620.583       1000         
      1154   0.098133728   -373.42233     -373.3242       151.83911     -1563.4969      1000         
      1156   0.13613917    -373.46323     -373.32709      210.64369      535.44865      1000         
      1158   0.091890232   -373.41462     -373.32273      142.17875      2588.3331      1000         
      1160   0.10744121    -373.43169     -373.32425      166.24028      1979.1259      1000         
      1162   0.11865152    -373.44313     -373.32448      183.58562     -428.66931      1000         
      1164   0.085923063   -373.40691     -373.32098      132.94595     -1748.3873      1000         
      1166   0.13043095    -373.4544      -373.32397      201.81155     -836.3375       1000         
      1168   0.11414378    -373.43628     -373.32213      176.61093      1085.0861      1000         
      1170   0.096181546   -373.41635     -373.32017      148.81856      1236.458       1000         
      1172   0.13003629    -373.45325     -373.32321      201.20091     -845.22915      1000         
      1174   0.087799605   -373.4068      -373.319        135.84946     -2384.0629      1000         
      1176   0.11384684    -373.43419     -373.32034      176.1515      -1595.8222      1000         
      1178   0.13861827    -373.46037     -373.32176      214.47951      892.83881      1000         
      1180   0.098546842   -373.41587     -373.31732      152.47831      2401.6323      1000         
      1182   0.13270846    -373.45391     -373.3212       205.33546      1127.3938      1000         
      1184   0.099360373   -373.41765     -373.31829      153.73706     -870.11215      1000         
      1186   0.087617166   -373.40475     -373.31713      135.56718     -1163.9314      1000         
      1188   0.13641277    -373.45698     -373.32057      211.06702      469.25665      1000         
      1190   0.1019978     -373.41832     -373.31633      157.81786      2021.4176      1000         
      1192   0.12649259    -373.44498     -373.31849      195.71785      998.21804      1000         
      1194   0.12855271    -373.44705     -373.3185       198.90541     -1513.994       1000         
      1196   0.085641771   -373.4007      -373.31506      132.51072     -2597.0285      1000         
      1198   0.12987082    -373.44839     -373.31852      200.94488     -1245.8241      1000         
      1200   0.11474223    -373.43152     -373.31678      177.5369       1139.2707      1000         
      1202   0.10677103    -373.42219     -373.31542      165.20332      1651.8351      1000         
      1204   0.14228657    -373.46105     -373.31877      220.15536     -120.8706       1000         
      1206   0.08916538    -373.40361     -373.31444      137.96268     -1413.8169      1000         
      1208   0.11011047    -373.42627     -373.31616      170.37033     -593.90635      1000         
      1210   0.13127577    -373.449       -373.31773      203.11871      1637.739       1000         
      1212   0.099969261   -373.41347     -373.3135       154.67917      2609.438       1000         
      1214   0.15018299    -373.46851     -373.31833      232.37323      712.09616      1000         
      1216   0.11280276    -373.428       -373.3152       174.53603     -1716.2064      1000         
      1218   0.095004932   -373.40946     -373.31445      146.99803     -2190.3502      1000         
      1220   0.13029927    -373.44842     -373.31812      201.6078      -495.94147      1000         
      1222   0.083834116   -373.39738     -373.31355      129.71379      1289.439       1000         
      1224   0.12171774    -373.43844     -373.31672      188.32989      615.57845      1000         
      1226   0.13563257    -373.45251     -373.31687      209.85985     -1367.1709      1000         
      1228   0.10125459    -373.41511     -373.31386      156.66793     -1876.8711      1000         
      1230   0.14356398    -373.46135     -373.31778      222.13186     -125.88241      1000         
      1232   0.1096323     -373.42539     -373.31576      169.63048      2345.3343      1000         
      1234   0.095583137   -373.41043     -373.31484      147.89267      2572.446       1000         
      1236   0.13514929    -373.45362     -373.31847      209.11208      293.00873      1000         
      1238   0.09239931    -373.4069      -373.3145       142.96643     -1583.534       1000         
      1240   0.12449311    -373.44144     -373.31695      192.62413     -1316.2743      1000         
      1242   0.13462937    -373.45316     -373.31853      208.30762      532.25694      1000         
      1244   0.087560872   -373.40192     -373.31436      135.48008      1367.1435      1000         
      1246   0.13122538    -373.45065     -373.31943      203.04074     -332.16567      1000         
      1248   0.10021925    -373.41673     -373.31651      155.06597     -2221.2132      1000         
      1250   0.10434574    -373.42081     -373.31646      161.45075     -2018.0847      1000         
      1252   0.1514769     -373.47208     -373.32061      234.37526      274.98647      1000         
      1254   0.099042636   -373.41521     -373.31617      153.24543      2405.8769      1000         
      1256   0.11796171    -373.4376      -373.31964      182.5183       1799.0978      1000         
      1258   0.10908596    -373.42852     -373.31943      168.78514     -349.10239      1000         
      1260   0.07998654    -373.39701     -373.31702      123.76056     -1295.6223      1000         
      1262   0.13981133    -373.46131     -373.3215       216.3255      -173.35724      1000         
      1264   0.12159244    -373.44129     -373.3197       188.136        1630.2233      1000         
      1266   0.11592619    -373.43579     -373.31987      179.36881      1366.4678      1000         
      1268   0.13234475    -373.45524     -373.3229       204.77271     -974.48407      1000         
      1270   0.07444899    -373.39371     -373.31926      115.19249     -2530.3174      1000         
      1272   0.10507444    -373.42721     -373.32213      162.57826     -1730.5982      1000         
      1274   0.1196955     -373.4433      -373.3236       185.20094      668.42421      1000         
      1276   0.0962453     -373.41692     -373.32067      148.91721      1909.7073      1000         
      1278   0.14267118    -373.46854     -373.32587      220.75045      547.29272      1000         
      1280   0.097273567   -373.42021     -373.32294      150.50821     -1123.0287      1000         
      1282   0.092871096   -373.4163      -373.32343      143.69641     -982.6062       1000         
      1284   0.12921097    -373.45656     -373.32735      199.92391      938.64556      1000         
      1286   0.089998267   -373.41345     -373.32345      139.25138      2429.0388      1000         
      1288   0.12928593    -373.45725     -373.32796      200.03989      1200.926       1000         
      1290   0.11624682    -373.44394     -373.32769      179.86491     -1283.0031      1000         
      1292   0.079882472   -373.40581     -373.32593      123.59954     -2289.1817      1000         
      1294   0.11994696    -373.4504      -373.33045      185.59001     -1004.0613      1000         
      1296   0.088561158   -373.41689     -373.32833      137.02779      1066.2493      1000         
      1298   0.099173707   -373.42875     -373.32958      153.44824      1127.1302      1000         
      1300   0.12898304    -373.46168     -373.3327       199.57124     -739.0007       1000         
      1302   0.084408623   -373.41423     -373.32982      130.60271     -1808.104       1000         
      1304   0.11303085    -373.44628     -373.33325      174.88894     -702.58493      1000         
      1306   0.10726728    -373.44167     -373.3344       165.97115      1688.0949      1000         
      1308   0.077924212   -373.41017     -373.33225      120.56959      2591.4118      1000         
      1310   0.12265004    -373.46004     -373.33739      189.77239      793.992        1000         
      1312   0.088062703   -373.42323     -373.33517      136.25654     -1313.3462      1000         
      1314   0.093638685   -373.43007     -373.33643      144.88408     -1558.5854      1000         
      1316   0.12001098    -373.46031     -373.3403       185.68907      78.202663      1000         
      1318   0.07465576    -373.4117      -373.33704      115.51242      1418.146       1000         
      1320   0.10795609    -373.44957     -373.34161      167.03694      317.61727      1000         
      1322   0.098183504   -373.43991     -373.34173      151.91613     -1731.5292      1000         
      1324   0.07738252    -373.41825     -373.34086      119.73145     -2176.1511      1000         
      1326   0.11876976    -373.46448     -373.34571      183.76857     -401.06663      1000         
      1328   0.082925559   -373.42703     -373.34411      128.30801      1919.084       1000         
      1330   0.08324545    -373.42906     -373.34582      128.80297      2042.4463      1000         
      1332   0.099590887   -373.44833     -373.34874      154.09373      131.10646      1000         
      1334   0.06527291    -373.412       -373.34673      100.99464     -1195.73        1000         
      1336   0.1029661     -373.45356     -373.3506       159.31609     -556.95241      1000         
      1338   0.10237764    -373.45449     -373.35211      158.40558      1222.6553      1000         
      1340   0.077828846   -373.42907     -373.35124      120.42203      1605.5913      1000         
      1342   0.10481215    -373.46084     -373.35603      162.17242     -322.8097       1000         
      1344   0.065350732   -373.41987     -373.35452      101.11505     -2205.1366      1000         
      1346   0.071876897   -373.42806     -373.35618      111.21277     -2032.0655      1000         
      1348   0.098036463   -373.45801     -373.35998      151.68862      27.607958      1000         
      1350   0.067143891   -373.42517     -373.35803      103.88955      1704.716       1000         
      1352   0.096940123   -373.45955     -373.36261      149.99229      996.05543      1000         
      1354   0.080055592   -373.44322     -373.36317      123.8674      -698.93655      1000         
      1356   0.058482884   -373.42139     -373.3629       90.488655     -1068.0568      1000         
      1358   0.092658403   -373.4601      -373.36744      143.36732      388.44267      1000         
      1360   0.067913639   -373.43452     -373.3666       105.08056      2043.3239      1000         
      1362   0.077389851   -373.44635     -373.36896      119.74279      1533.2394      1000         
      1364   0.087220263   -373.45918     -373.37196      134.95306     -702.85912      1000         
      1366   0.050573425   -373.42127     -373.3707       78.250608     -2098.3424      1000         
      1368   0.074262101   -373.44851     -373.37425      114.90332     -1376.6943      1000         
      1370   0.068974283   -373.44451     -373.37553      106.72165      544.11301      1000         
      1372   0.057515277   -373.43278     -373.37527      88.991509      1217.8533      1000         
      1374   0.090680939   -373.47053     -373.37985      140.30765     -148.85101      1000         
      1376   0.061610555   -373.44073     -373.37912      95.327999     -1432.4434      1000         
      1378   0.063558597   -373.44461     -373.38105      98.342141     -922.5655       1000         
      1380   0.072039698   -373.45625     -373.38421      111.46467      1039.0831      1000         
      1382   0.038736515   -373.42127     -373.38254      59.935744      2279.8982      1000         
      1384   0.066901446   -373.45324     -373.38634      103.51442      1147.1761      1000         
      1386   0.061538993   -373.44846     -373.38692      95.217273     -881.19693      1000         
      1388   0.052408035   -373.43947     -373.38706      81.08924      -1561.8434      1000         
      1390   0.079827549   -373.47084     -373.39101      123.51456     -414.89982      1000         
      1392   0.051232941   -373.44153     -373.39029      79.271055      1028.348       1000         
      1394   0.05239602    -373.44442     -373.39203      81.070651      666.78231      1000         
      1396   0.060441033   -373.45471     -373.39427      93.518436     -1037.7173      1000         
      1398   0.037634379   -373.43078     -373.39315      58.230445     -1816.1557      1000         
      1400   0.064996468   -373.46125     -373.39626      100.56691     -678.47223      1000         
      1402   0.058991118   -373.45617     -373.39718      91.27503       1323.8854      1000         
      1404   0.042566917   -373.43937     -373.39681      65.8624        1905.7557      1000         
      1406   0.061971696   -373.46209     -373.40012      95.886781      467.44666      1000         
      1408   0.036642826   -373.43554     -373.3989       56.696248     -975.69397      1000         
      1410   0.048020552   -373.44839     -373.40037      74.300631     -824.90683      1000         
[...]
     49274   0.089984993   -373.42756     -373.33758      139.23084     -1618.1421      1000         
     49276   0.12331868    -373.46584     -373.34253      190.80696      26.674444      1000         
     49278   0.087745448   -373.42922     -373.34147      135.76567      1763.2938      1000         
     49280   0.0962321     -373.44083     -373.3446       148.89678      1187.9902      1000         
     49282   0.098675322   -373.44581     -373.34713      152.6771      -937.37142      1000         
     49284   0.069530418   -373.41583     -373.3463       107.58214     -1966.1273      1000         
     49286   0.10179312    -373.4524      -373.35061      157.50117     -798.94387      1000         
     49288   0.091508353   -373.44323     -373.35172      141.58789      1322.5731      1000         
     49290   0.0782753     -373.43054     -373.35227      121.11281      1790.4662      1000         
     49292   0.09917895    -373.4558      -373.35662      153.45635      80.777241      1000         
     49294   0.065225365   -373.42084     -373.35562      100.92108     -1431.9103      1000         
     49296   0.080170218   -373.43836     -373.35819      124.04476     -1028.3047      1000         
     49298   0.097805571   -373.45932     -373.36151      151.33137      796.69842      1000         
     49300   0.072000415   -373.43268     -373.36068      111.40389      1736.2223      1000         
     49302   0.094308608   -373.45946     -373.36515      145.92063      341.32185      1000         
     49304   0.070327888   -373.43582     -373.36549      108.81604     -1579.5504      1000         
     49306   0.0562976     -373.42225     -373.36596      87.107438     -1786.2017      1000         
     49308   0.085363097   -373.45535     -373.36999      132.07953     -73.906185      1000         
     49310   0.065063315   -373.43447     -373.36941      100.67034      1678.9218      1000         
     49312   0.081232227   -373.45337     -373.37214      125.68797      1291.5256      1000         
     49314   0.087622779   -373.46243     -373.37481      135.57586     -524.82882      1000         
     49316   0.055969878   -373.43002     -373.37405      86.600363     -1368.0789      1000         
     49318   0.076266023   -373.45399     -373.37772      118.00393     -346.52107      1000         
     49320   0.061422016   -373.43995     -373.37853      95.03628       1331.1812      1000         
     49322   0.050442788   -373.42897     -373.37853      78.048478      1389.3888      1000         
     49324   0.078091232   -373.46058     -373.38249      120.82801     -437.10908      1000         
     49326   0.051936593   -373.43329     -373.38135      80.359794     -1825.7275      1000         
     49328   0.066265574   -373.44984     -373.38357      102.53056     -1264.2908      1000         
     49330   0.078207804   -373.46457     -373.38636      121.00838      646.71125      1000         
     49332   0.048922627   -373.43391     -373.38499      75.696382      1706.4056      1000         
     49334   0.071193745   -373.46006     -373.38887      110.15576      586.94981      1000         
     49336   0.052568161   -373.44123     -373.38866      81.336998     -1030.6336      1000         
     49338   0.044638329   -373.43351     -373.38887      69.067428     -1166.0197      1000         
     49340   0.073352474   -373.46571     -373.39235      113.49589      270.56161      1000         
     49342   0.049674749   -373.44089     -373.39121      76.860117      1566.3048      1000         
     49344   0.061251197   -373.45465     -373.3934       94.771977      863.74053      1000         
     49346   0.063135295   -373.45814     -373.39501      97.68718      -970.28334      1000         
     49348   0.035044147   -373.42874     -373.39369      54.222665     -1677.5256      1000         
     49350   0.060637443   -373.45733     -373.3967       93.822334     -543.4969       1000         
     49352   0.051080215   -373.44786     -373.39677      79.034748      1208.1702      1000         
     49354   0.046865462   -373.44349     -373.39663      72.513399      1398.9009      1000         
     49356   0.071609883   -373.47144     -373.39983      110.79963     -175.18025      1000         
     49358   0.040406708   -373.43847     -373.39806      62.519979     -1356.9761      1000         
     49360   0.050478263   -373.45027     -373.3998       78.103367     -833.53285      1000         
     49362   0.055393102   -373.45679     -373.4014       85.707937      799.6681       1000         
     49364   0.031251691   -373.43063     -373.39938      48.35472       1522.6489      1000         
     49366   0.063632938   -373.46646     -373.40283      98.457166      258.61386      1000         
     49368   0.049669092   -373.45147     -373.4018       76.851364     -1277.9943      1000         
     49370   0.045505373   -373.44736     -373.40185      70.408977     -1288.4543      1000         
     49372   0.066950485   -373.47158     -373.40463      103.5903       218.86138      1000         
     49374   0.033178318   -373.43552     -373.40234      51.335728      1541.475       1000         
     49376   0.04603592    -373.4504      -373.40436      71.229876      895.1159       1000         
     49378   0.048115935   -373.45288     -373.40476      74.448214     -802.43333      1000         
     49380   0.030846991   -373.4341      -373.40325      47.728542     -1445.4574      1000         
     49382   0.063608577   -373.46959     -373.40599      98.419474     -405.57119      1000         
     49384   0.049363258   -373.45434     -373.40497      76.378157      1145.1716      1000         
     49386   0.044017332   -373.44885     -373.40484      68.106579      1164.2624      1000         
     49388   0.059821961   -373.46667     -373.40685      92.560566     -368.88013      1000         
     49390   0.029528478   -373.4341      -373.40457      45.68845      -1380.1707      1000         
     49392   0.048004414   -373.45421     -373.4062       74.275662     -711.17724      1000         
     49394   0.05338308    -373.46029     -373.40691      82.597897      977.8695       1000         
     49396   0.033584306   -373.43838     -373.40479      51.9639        1641.4817      1000         
     49398   0.062251351   -373.46997     -373.40772      96.319481      312.3822       1000         
     49400   0.039310907   -373.44502     -373.40571      60.824482     -1250.5785      1000         
     49402   0.039050089   -373.44484     -373.40579      60.420927     -1334.0829      1000         
     49404   0.060011438   -373.46779     -373.40778      92.853737      61.26493       1000         
     49406   0.032380645   -373.43733     -373.40495      50.101514      1254.473       1000         
     49408   0.055107682   -373.46235     -373.40725      85.266316      590.32809      1000         
     49410   0.04997395    -373.45654     -373.40657      77.32306      -901.58039      1000         
     49412   0.032323009   -373.43743     -373.40511      50.012335     -1269.8245      1000         
     49414   0.05969575    -373.4672      -373.4075       92.365283     -16.63067       1000         
     49416   0.037505965   -373.44295     -373.40544      58.031754      1572.0795      1000         
     49418   0.041646648   -373.44743     -373.40579      64.438498      1426.6507      1000         
     49420   0.058906151   -373.46584     -373.40693      91.143564     -302.09034      1000         
     49422   0.034615769   -373.43912     -373.40451      53.559849     -1497.0919      1000         
     49424   0.058223233   -373.46447     -373.40625      90.086907     -986.77427      1000         
     49426   0.054125327   -373.46009     -373.40596      83.746351      589.56587      1000         
     49428   0.03377972    -373.43788     -373.4041       52.266257      1181.0023      1000         
     49430   0.056712405   -373.46319     -373.40647      87.749252     -31.88784       1000         
     49432   0.031073176   -373.43511     -373.40404      48.07851      -1281.8558      1000         
     49434   0.040342432   -373.44476     -373.40442      62.420528     -1010.5301      1000         
     49436   0.062779445   -373.46862     -373.40584      97.136585      635.35005      1000         
     49438   0.040756324   -373.44369     -373.40293      63.060929      1802.5453      1000         
     49440   0.064334272   -373.46955     -373.40522      99.542318      900.28516      1000         
     49442   0.04798559    -373.45172     -373.40373      74.246535     -858.33654      1000         
     49444   0.031503173   -373.43404     -373.40254      48.743831     -1463.0146      1000         
     49446   0.057347054   -373.46203     -373.40468      88.731223     -362.98512      1000         
     49448   0.036609882   -373.43878     -373.40217      56.645274      1119.4946      1000         
     49450   0.05118878    -373.45425     -373.40306      79.202727      936.19861      1000         
     49452   0.063311249   -373.46678     -373.40346      97.959427     -624.25756      1000         
     49454   0.037008882   -373.43804     -373.40103      57.262635     -1493.6616      1000         
     49456   0.057976166   -373.46078     -373.40281      89.704627     -626.37734      1000         
     49458   0.047272006   -373.44904     -373.40177      73.14243       1151.5252      1000         
     49460   0.037456283   -373.43798     -373.40052      57.954883      1647.2598      1000         
     49462   0.063763325   -373.46619     -373.40242      98.658911      199.84928      1000         
     49464   0.040226537   -373.44006     -373.39983      62.241206     -1279.9552      1000         
     49466   0.051679342   -373.4521      -373.40042      79.961758     -1167.8454      1000         
     49468   0.06273467    -373.46388     -373.40114      97.067306      386.18038      1000         
     49470   0.036742712   -373.43509     -373.39835      56.850798      1452.5371      1000         
     49472   0.059938652   -373.46039     -373.40045      92.741119      526.47186      1000         
     49474   0.047031598   -373.44583     -373.39879      72.770455     -1090.0673      1000         
     49476   0.040810585   -373.43858     -373.39777      63.144884     -1424.0973      1000         
     49478   0.069353445   -373.46901     -373.39965      107.30832     -52.133142      1000         
     49480   0.046998993   -373.44384     -373.39684      72.720007      1504.4706      1000         
     49482   0.057954703   -373.45571     -373.39775      89.671419      1170.3382      1000         
     49484   0.059912973   -373.45753     -373.39762      92.701386     -584.0674       1000         
     49486   0.033363843   -373.42864     -373.39528      51.622784     -1569.9367      1000         
     49488   0.057398859   -373.45442     -373.39702      88.811379     -714.9998       1000         
     49490   0.051326435   -373.44696     -373.39563      79.415716      1060.4818      1000         
     49492   0.050350735   -373.44497     -373.39462      77.906048      1505.3836      1000         
     49494   0.074896902   -373.47091     -373.39602      115.88553      53.075323      1000         
     49496   0.048055192   -373.44129     -373.39324      74.354229     -1328.0137      1000         
     49498   0.055296345   -373.44901     -373.39371      85.558228     -1039.7635      1000         
     49500   0.061424702   -373.45548     -373.39406      95.040435      619.2855       1000         
     49502   0.037667639   -373.42899     -373.39132      58.281907      1589.4045      1000         
     49504   0.065540367   -373.4588      -373.39326      101.40847      447.05081      1000         
     49506   0.056889126   -373.44829     -373.3914       88.022686     -1313.4734      1000         
     49508   0.05208726    -373.44233     -373.39024      80.592916     -1613.8718      1000         
     49510   0.076191115   -373.46793     -373.39174      117.88802     -96.769768      1000         
     49512   0.049239374   -373.43798     -373.38874      76.186475      1568.5637      1000         
     49514   0.057784249   -373.44715     -373.38937      89.407681      1267.6282      1000         
     49516   0.063817657   -373.453       -373.38919      98.742976     -464.22351      1000         
     49518   0.043770071   -373.43045     -373.38668      67.724002     -1382.1302      1000         
     49520   0.072443265   -373.46067     -373.38823      112.0891      -477.78564      1000         
     49522   0.065073602   -373.45165     -373.38657      100.68626      1194.5855      1000         
     49524   0.054303182   -373.43936     -373.38506      84.02154       1376.4021      1000         
     49526   0.072743769   -373.45905     -373.38631      112.55406     -336.1305       1000         
     49528   0.047146129   -373.43048     -373.38333      72.947666     -1766.602       1000         
     49530   0.062623381   -373.44637     -373.38374      96.895112     -1291.7367      1000         
     49532   0.078740332   -373.4627      -373.38396      121.83234      633.80936      1000         
     49534   0.056298105   -373.43711     -373.38081      87.108218      1794.8085      1000         
     49536   0.078643562   -373.46109     -373.38245      121.68262      722.16849      1000         
     49538   0.059657799   -373.43977     -373.38011      92.306563     -1001.5754      1000         
     49540   0.048794338   -373.42755     -373.37875      75.497885     -1270.3141      1000         
     49542   0.077413964   -373.45763     -373.38021      119.7801       171.12597      1000         
     49544   0.058942445   -373.43602     -373.37707      91.19972       1582.3458      1000         
     49546   0.075792734   -373.45329     -373.3775       117.27162      925.62238      1000         
     49548   0.083016601   -373.46        -373.37698      128.44887     -1030.2652      1000         
     49550   0.055063749   -373.42894     -373.37388      85.198341     -1872.798       1000         
     49551   0.063948972   -373.43827     -373.37432      98.946156     -1502.3847      1000         
Loop time of 88.9946 on 1 procs for 49550 steps with 6 atoms

Performance: 48.105 ns/day, 0.499 hours/ns, 556.775 timesteps/s, 3.341 katom-step/s
156.5% CPU use with 1 MPI tasks x 1 OpenMP threads

MPI task timing breakdown:
Section |  min time  |  avg time  |  max time  |%varavg| %total
---------------------------------------------------------------
Pair    | 86.531     | 86.531     | 86.531     |   0.0 | 97.23
Neigh   | 0.045444   | 0.045444   | 0.045444   |   0.0 |  0.05
Comm    | 0.10215    | 0.10215    | 0.10215    |   0.0 |  0.11
Output  | 1.2895     | 1.2895     | 1.2895     |   0.0 |  1.45
Modify  | 0.96327    | 0.96327    | 0.96327    |   0.0 |  1.08
Other   |            | 0.06296    |            |       |  0.07

Nlocal:              6 ave           6 max           6 min
Histogram: 1 0 0 0 0 0 0 0 0 0
Nghost:            156 ave         156 max         156 min
Histogram: 1 0 0 0 0 0 0 0 0 0
Neighs:              0 ave           0 max           0 min
Histogram: 1 0 0 0 0 0 0 0 0 0
FullNghs:           30 ave          30 max          30 min
Histogram: 1 0 0 0 0 0 0 0 0 0

Total # of neighbors = 30
Ave neighs/atom = 5
Neighbor list builds = 4955
Dangerous builds not checked

# Write restart files every 100 steps for the final 1000 steps
restart 5 ./restart_NVT/restart_NVT150.*.bin
run 50
Generated 0 of 1 mixed pair_coeff terms from geometric mixing rule
Per MPI rank memory allocation (min/avg/max) = 3.81 | 3.81 | 3.81 Mbytes
   Step         KinEng         PotEng         TotEng          Temp          Press          Volume    
     49551   0.063948972   -373.43827     -373.37432      98.946156     -1502.3847      1000         
     49552   0.079965592   -373.45527     -373.37531      123.72815     -682.90341      1000         
     49554   0.06766677    -373.4411      -373.37344      104.69858      1301.3598      1000         
     49556   0.055987175   -373.42745     -373.37147      86.627127      1662.779       1000         
     49558   0.085656528   -373.45877     -373.37311      132.53355     -10.958714      1000         
     49560   0.060191037   -373.42955     -373.36936      93.131625     -1402.0725      1000         
     49562   0.079023297   -373.44874     -373.36971      122.27017     -931.01398      1000         
     49564   0.09354195    -373.46325     -373.36971      144.7344       854.20067      1000         
     49566   0.061697925   -373.42742     -373.36572      95.463184      1705.8321      1000         
     49568   0.087633515   -373.45542     -373.36778      135.59247      270.63788      1000         
     49570   0.066467942   -373.4313      -373.36484      102.84368     -1578.4904      1000         
     49572   0.059294519   -373.4226      -373.3633       91.744472     -1678.8824      1000         
     49574   0.098488235   -373.46344     -373.36495      152.38763      75.712914      1000         
     49576   0.075187186   -373.43616     -373.36098      116.33468      1771.5909      1000         
     49578   0.089551148   -373.45097     -373.36142      138.55957      1210.9791      1000         
     49580   0.089912495   -373.45042     -373.36051      139.11867     -734.17621      1000         
     49582   0.055227009   -373.41216     -373.35694      85.450946     -1550.3011      1000         
     49584   0.091146582   -373.44999     -373.35884      141.02813     -400.94741      1000         
     49586   0.08236849    -373.4388      -373.35643      127.44607      1428.1414      1000         
     49588   0.07927628    -373.43362     -373.35435      122.6616       1474.4122      1000         
     49590   0.11323809    -373.46919     -373.35595      175.2096      -475.60026      1000         
     49592   0.071191625   -373.42239     -373.3512       110.15248     -1858.5567      1000         
     49594   0.08495577    -373.43669     -373.35173      131.44929     -1160.557       1000         
     49596   0.095023909   -373.44675     -373.35172      147.02739      931.72371      1000         
     49598   0.064283736   -373.41139     -373.34711      99.464125      1963.3309      1000         
     49600   0.11253308    -373.46273     -373.3502       174.11877      493.31346      1000         
     49601   0.11290337    -373.46188     -373.34898      174.6917      -581.23667      1000         
Loop time of 0.0908412 on 1 procs for 50 steps with 6 atoms

Performance: 47.556 ns/day, 0.505 hours/ns, 550.411 timesteps/s, 3.302 katom-step/s
144.4% CPU use with 1 MPI tasks x 1 OpenMP threads

MPI task timing breakdown:
Section |  min time  |  avg time  |  max time  |%varavg| %total
---------------------------------------------------------------
Pair    | 0.087058   | 0.087058   | 0.087058   |   0.0 | 95.83
Neigh   | 0.00010045 | 0.00010045 | 0.00010045 |   0.0 |  0.11
Comm    | 0.00012395 | 0.00012395 | 0.00012395 |   0.0 |  0.14
Output  | 0.0022863  | 0.0022863  | 0.0022863  |   0.0 |  2.52
Modify  | 0.00118    | 0.00118    | 0.00118    |   0.0 |  1.30
Other   |            | 9.299e-05  |            |       |  0.10

Nlocal:              6 ave           6 max           6 min
Histogram: 1 0 0 0 0 0 0 0 0 0
Nghost:            156 ave         156 max         156 min
Histogram: 1 0 0 0 0 0 0 0 0 0
Neighs:              0 ave           0 max           0 min
Histogram: 1 0 0 0 0 0 0 0 0 0
FullNghs:           30 ave          30 max          30 min
Histogram: 1 0 0 0 0 0 0 0 0 0

Total # of neighbors = 30
Ave neighs/atom = 5
Neighbor list builds = 10
Dangerous builds not checked

write_data out.lmp
System init for write_data ...
Generated 0 of 1 mixed pair_coeff terms from geometric mixing rule
Total wall time: 0:01:31
