LAMMPS data file via write_data, version 2 Aug 2023, timestep = 49601, units = metal

6 atoms
2 atom types

0 10 xlo xhi
0 10 ylo yhi
0 10 zlo zhi

Masses

1 12.0107
2 1.00794

Atoms # atomic

6 2 4.515103610371993 4.492871385625241 3.595799605449128 0 0 0
1 1 5.202532574669671 4.845373744532071 4.385987475979474 0 0 0
5 2 6.253665075461739 4.970969989652142 4.082999429563757 0 0 0
4 2 3.7401828910874473 5.03981944869698 5.899745868259454 0 0 0
2 1 4.799709465057619 5.152032029990322 5.615402585635825 0 0 0
3 2 5.466785500101147 5.526834574941869 6.4067319563286915 0 0 0

Velocities

6 -13.314281063808096 3.5965065036292287 -1.653912449171193
1 -2.4821162019217566 -0.9887860568133013 1.2032144514559282
5 15.564580446108502 -20.751333717693498 -10.956493067129927
4 -18.339034752942144 16.143894862615106 5.65732090545274
2 2.237857424169605 1.0350571460798275 -0.3651867361422901
3 18.999344039759418 0.45956205971116454 -3.0329259456521642
