LAMMPS data file via write_data, version 2 Aug 2023, timestep = 69575, units = metal

6 atoms
2 atom types

0 10 xlo xhi
0 10 ylo yhi
0 10 zlo zhi

Masses

1 12.0107
2 1.00794

Atoms # atomic

2 1 4.558208127645944 4.803330620494807 5.465074913245243 0 0 0
6 2 5.48253701992401 4.67936137410917 3.596980230288422 0 0 0
4 2 3.8844538763845944 3.9635588548645617 5.3344750060580415 0 0 0
5 2 6.104777523724574 6.045739588880146 4.663293694260167 0 0 0
3 2 4.488855337559909 5.299263545785598 6.405196867827996 0 0 0
1 1 5.445302224438133 5.19764780651255 4.535084128508258 0 0 0

Velocities

2 2.6291473033089527 3.2895006108525884 2.2533238883168405
6 -10.807302463800832 -5.188731278217058 -7.299483881296316
4 -17.074638572152658 1.1032257810131585 -1.9160809441396465
5 19.141543739545174 -1.7433774572190752 6.577121856266643
3 4.192435852187501 1.6850982240965249 8.961647303261683
1 -2.247481600386633 -2.941753486947791 -2.783968278444636
