ITEM: TIMESTEP
49600
ITEM: NUMBER OF ATOMS
6
ITEM: BOX BOUNDS pp pp pp
0.0000000000000000e+00 1.0000000000000000e+01
0.0000000000000000e+00 1.0000000000000000e+01
0.0000000000000000e+00 1.0000000000000000e+01
ITEM: ATOMS id type x y z vx vy vz
1 1 4.85574 4.65186 4.43788 -6.42348 -0.225623 2.40421
6 2 4.30591 3.74728 4.50192 -15.4907 6.52924 14.6899
5 2 5.07894 5.0154 3.47469 13.9254 -5.16624 0.346414
4 2 4.89545 5.02885 6.56471 -11.2971 2.33302 12.8396
2 1 5.14805 5.34347 5.55703 5.54295 -0.420113 -4.26368
3 2 5.67702 6.26362 5.52102 23.3548 3.99861 -5.71838
ITEM: TIMESTEP
49700
ITEM: NUMBER OF ATOMS
6
ITEM: BOX BOUNDS pp pp pp
0.0000000000000000e+00 1.0000000000000000e+01
0.0000000000000000e+00 1.0000000000000000e+01
0.0000000000000000e+00 1.0000000000000000e+01
ITEM: ATOMS id type x y z vx vy vz
1 1 4.47733 4.69847 4.71952 -0.122916 0.600864 5.36294
6 2 3.46702 5.18413 4.68705 -4.86326 24.6233 -5.55995
5 2 4.57997 3.74728 4.13617 -13.9387 -10.4043 9.42568
4 2 5.42954 6.27658 5.82136 3.59954 4.58975 -16.2368
2 1 5.51949 5.29843 5.28489 2.2638 -0.498798 -4.02215
3 2 6.56373 4.82853 5.3047 -10.3085 -20.025 -3.60588
ITEM: TIMESTEP
49800
ITEM: NUMBER OF ATOMS
6
ITEM: BOX BOUNDS pp pp pp
0.0000000000000000e+00 1.0000000000000000e+01
0.0000000000000000e+00 1.0000000000000000e+01
0.0000000000000000e+00 1.0000000000000000e+01
ITEM: ATOMS id type x y z vx vy vz
1 1 4.34222 5.00783 5.09106 -0.400855 7.09797 3.23307
6 2 3.64078 5.47696 4.41435 15.9009 -19.0298 3.65089
5 2 3.88344 4.55922 5.97549 19.2981 14.8926 3.10226
4 2 6.09954 5.4256 4.03316 -18.0909 -23.0419 1.92091
2 1 5.66423 4.99508 4.90783 -0.33102 -5.39867 -3.58619
3 2 6.30184 4.50319 5.59194 -8.38699 6.93001 -4.46622
ITEM: TIMESTEP
49900
ITEM: NUMBER OF ATOMS
6
ITEM: BOX BOUNDS pp pp pp
0.0000000000000000e+00 1.0000000000000000e+01
0.0000000000000000e+00 1.0000000000000000e+01
0.0000000000000000e+00 1.0000000000000000e+01
ITEM: ATOMS id type x y z vx vy vz
1 1 4.55991 5.41472 5.28109 5.0678 1.97872 0.405961
6 2 3.48909 5.23705 5.14382 -8.47811 -12.2286 7.71701
5 2 4.86996 6.31274 5.7708 23.0783 17.7801 -11.351
4 2 5.16478 3.67288 4.17598 -19.0657 -31.281 6.77711
2 1 5.43688 4.58712 4.72512 -5.88887 0.058307 -0.132298
3 2 6.51677 4.75498 4.83722 14.2494 1.45608 -6.40416
ITEM: TIMESTEP
50000
ITEM: NUMBER OF ATOMS
6
ITEM: BOX BOUNDS pp pp pp
0.0000000000000000e+00 1.0000000000000000e+01
0.0000000000000000e+00 1.0000000000000000e+01
0.0000000000000000e+00 1.0000000000000000e+01
ITEM: ATOMS id type x y z vx vy vz
2 1 5.03619 4.38572 4.76475 -6.51708 -2.42122 2.35508
3 2 5.10924 4.13256 3.67341 -17.9596 14.3124 15.3435
5 2 5.01638 6.48735 4.52173 -7.3419 -8.71211 1.19183
4 2 4.94491 3.51566 5.46574 9.5496 17.2704 -0.121433
1 1 4.96924 5.61659 5.2375 6.26626 0.250728 -3.31732
6 2 4.86715 5.83652 6.31407 18.7406 2.99308 -4.94771
ITEM: TIMESTEP
50100
ITEM: NUMBER OF ATOMS
6
ITEM: BOX BOUNDS pp pp pp
0.0000000000000000e+00 1.0000000000000000e+01
0.0000000000000000e+00 1.0000000000000000e+01
0.0000000000000000e+00 1.0000000000000000e+01
ITEM: ATOMS id type x y z vx vy vz
2 1 4.62386 4.45482 5.08071 -3.25986 3.94907 2.62845
3 2 3.57589 4.52587 5.04744 -5.82892 9.70356 26.0395
5 2 4.94106 6.48625 4.69034 -5.30594 -0.0904937 6.26729
4 2 5.074 3.54798 5.34639 2.11138 3.61007 -1.25041
1 1 5.37365 5.53861 4.91575 4.48173 -4.4053 -3.62285
6 2 6.44113 5.51782 4.95984 -5.53638 -7.78665 -19.2071
ITEM: TIMESTEP
50200
ITEM: NUMBER OF ATOMS
6
ITEM: BOX BOUNDS pp pp pp
0.0000000000000000e+00 1.0000000000000000e+01
0.0000000000000000e+00 1.0000000000000000e+01
0.0000000000000000e+00 1.0000000000000000e+01
ITEM: ATOMS id type x y z vx vy vz
2 1 4.55561 4.76043 5.41968 0.979599 5.71977 0.0992346
3 2 4.51188 5.14395 6.4733 17.7481 -3.2669 21.8997
5 2 6.18915 6.00581 4.86343 11.9625 -10.1135 -1.20551
4 2 3.80261 3.96851 5.12394 -18.9107 1.25355 5.43365
1 1 5.44935 5.2433 4.58049 -0.271521 -4.05862 -1.12524
6 2 5.43967 4.83696 3.53913 -19.2375 -7.66751 -13.9018
ITEM: TIMESTEP
50300
ITEM: NUMBER OF ATOMS
6
ITEM: BOX BOUNDS pp pp pp
0.0000000000000000e+00 1.0000000000000000e+01
0.0000000000000000e+00 1.0000000000000000e+01
0.0000000000000000e+00 1.0000000000000000e+01
ITEM: ATOMS id type x y z vx vy vz
2 1 4.76956 5.15965 5.59673 3.30501 5.21196 2.69298
3 2 5.18059 4.727 6.52098 -9.90345 1.48563 -27.038
5 2 5.98614 4.04996 4.31749 -25.2325 -6.2942 -9.15556
4 2 4.04447 5.96659 5.70192 30.336 0.863587 0.0844347
1 1 5.2268 4.83687 4.3992 -3.29154 -4.1618 -0.463441
6 2 4.83456 5.29752 3.50995 4.63946 -8.56882 9.54176
ITEM: TIMESTEP
50400
ITEM: NUMBER OF ATOMS
6
ITEM: BOX BOUNDS pp pp pp
0.0000000000000000e+00 1.0000000000000000e+01
0.0000000000000000e+00 1.0000000000000000e+01
0.0000000000000000e+00 1.0000000000000000e+01
ITEM: ATOMS id type x y z vx vy vz
2 1 5.23777 5.35384 5.51336 2.18026 0.454715 -3.03237
3 2 4.85114 5.18176 6.48712 -0.104807 11.4224 23.4356
5 2 3.98828 3.90833 4.62395 -29.9327 3.45417 6.46053
4 2 6.02785 6.04123 5.35222 28.0541 -14.8052 -11.1879
1 1 4.76156 4.65292 4.49134 -1.75127 0.460087 2.31353
6 2 5.14311 4.78774 3.48236 -3.12842 -10.9723 -10.1424
ITEM: TIMESTEP
50500
ITEM: NUMBER OF ATOMS
6
ITEM: BOX BOUNDS pp pp pp
0.0000000000000000e+00 1.0000000000000000e+01
0.0000000000000000e+00 1.0000000000000000e+01
0.0000000000000000e+00 1.0000000000000000e+01
ITEM: ATOMS id type x y z vx vy vz
2 1 5.56689 5.25337 5.22327 2.8837 -2.30844 -4.74101
3 2 5.64804 6.35815 5.4266 14.8963 -1.91662 -15.481
5 2 3.50822 5.36323 4.70486 9.42865 1.65937 -0.94745
4 2 6.51242 4.62015 5.33501 7.66787 -4.8544 12.6891
1 1 4.43117 4.74757 4.77361 -4.87218 2.25511 3.25025
6 2 4.35672 3.64688 4.57239 -8.29793 5.74706 21.5034
ITEM: TIMESTEP
50600
ITEM: NUMBER OF ATOMS
6
ITEM: BOX BOUNDS pp pp pp
0.0000000000000000e+00 1.0000000000000000e+01
0.0000000000000000e+00 1.0000000000000000e+01
0.0000000000000000e+00 1.0000000000000000e+01
ITEM: ATOMS id type x y z vx vy vz
2 1 5.64029 4.90598 4.84106 2.24814 -3.79979 -2.98413
3 2 6.01823 5.03043 3.83552 -11.7178 -26.0687 7.40763
5 2 3.69645 5.43346 4.39846 -6.97069 3.57524 11.8296
4 2 6.34033 4.57914 5.56921 -7.62153 5.68588 -16.1902
1 1 4.35662 5.0962 5.16427 -0.251771 2.59541 2.06412
6 2 3.98424 4.93053 6.13509 2.52111 31.159 7.91577
ITEM: TIMESTEP
50700
ITEM: NUMBER OF ATOMS
6
ITEM: BOX BOUNDS pp pp pp
0.0000000000000000e+00 1.0000000000000000e+01
0.0000000000000000e+00 1.0000000000000000e+01
0.0000000000000000e+00 1.0000000000000000e+01
ITEM: ATOMS id type x y z vx vy vz
2 1 5.38001 4.52092 4.72821 -3.69829 -3.19071 -0.656956
3 2 4.94992 3.55757 4.48199 -10.8364 -28.7053 7.393
5 2 3.55065 5.32719 5.54951 -10.886 6.14068 21.7059
4 2 6.42775 4.7136 4.47479 8.21095 -3.5537 -18.3619
1 1 4.62137 5.47475 5.26388 4.73324 3.53204 0.723241
6 2 5.0576 6.45277 5.58971 1.17882 22.051 -11.5269
ITEM: TIMESTEP
50800
ITEM: NUMBER OF ATOMS
6
ITEM: BOX BOUNDS pp pp pp
0.0000000000000000e+00 1.0000000000000000e+01
0.0000000000000000e+00 1.0000000000000000e+01
0.0000000000000000e+00 1.0000000000000000e+01
ITEM: ATOMS id type x y z vx vy vz
2 1 4.93166 4.3659 4.80674 -4.25958 -2.79628 0.48982
3 2 5.05345 3.52655 5.53188 -3.8487 8.05489 -10.0288
5 2 5.31641 5.90571 6.2274 25.5343 -1.18321 -30.7314
4 2 4.68163 4.07976 3.75418 -20.4716 -16.6548 15.3126
1 1 5.06591 5.63545 5.19398 4.02798 4.73734 1.18995
6 2 4.97979 6.47155 4.47974 1.54567 -13.3467 5.43133
ITEM: TIMESTEP
50900
ITEM: NUMBER OF ATOMS
6
ITEM: BOX BOUNDS pp pp pp
0.0000000000000000e+00 1.0000000000000000e+01
0.0000000000000000e+00 1.0000000000000000e+01
0.0000000000000000e+00 1.0000000000000000e+01
ITEM: ATOMS id type x y z vx vy vz
2 1 4.58815 4.50297 5.17552 -2.29824 0.526914 4.25316
3 2 4.86231 3.46986 5.21932 -14.2986 -5.62936 -1.13622
5 2 6.45013 5.29322 4.63836 11.5785 -7.8703 -31.4642
4 2 3.56318 4.67759 5.37234 1.29786 10.2951 16.8393
1 1 5.41388 5.5015 4.82342 1.31472 -1.75986 -2.95131
6 2 5.10258 6.50562 4.78441 13.1419 17.8965 0.248144
ITEM: TIMESTEP
51000
ITEM: NUMBER OF ATOMS
6
ITEM: BOX BOUNDS pp pp pp
0.0000000000000000e+00 1.0000000000000000e+01
0.0000000000000000e+00 1.0000000000000000e+01
0.0000000000000000e+00 1.0000000000000000e+01
ITEM: ATOMS id type x y z vx vy vz
5 2 5.31121 4.91258 3.42558 -10.4763 4.31577 -9.69488
1 1 5.42296 5.16164 4.51637 0.200353 -2.46366 -2.12758
6 2 6.42494 5.67372 4.75037 14.2012 -22.3904 -14.7867
2 1 4.56909 4.83936 5.48507 0.153678 2.34644 3.12111
3 2 3.61814 4.31306 5.24614 -19.7631 13.9954 6.62114
4 2 4.74283 5.08825 6.56263 11.8195 5.47596 6.02146
ITEM: TIMESTEP
51100
ITEM: NUMBER OF ATOMS
6
ITEM: BOX BOUNDS pp pp pp
0.0000000000000000e+00 1.0000000000000000e+01
0.0000000000000000e+00 1.0000000000000000e+01
0.0000000000000000e+00 1.0000000000000000e+01
ITEM: ATOMS id type x y z vx vy vz
5 2 4.90973 5.29645 3.48596 8.20537 -13.3096 16.752
1 1 5.13834 4.75866 4.38853 -3.75025 -1.74876 -4.47228
6 2 5.63158 3.82603 4.21945 -33.0179 -3.17789 11.0437
2 1 4.8651 5.24196 5.6121 3.86101 2.11796 2.04535
3 2 4.32161 6.16506 5.75973 28.5827 -3.6667 -0.0421585
4 2 5.09848 4.70465 6.52913 -5.08992 15.7549 1.16591
ITEM: TIMESTEP
51200
ITEM: NUMBER OF ATOMS
6
ITEM: BOX BOUNDS pp pp pp
0.0000000000000000e+00 1.0000000000000000e+01
0.0000000000000000e+00 1.0000000000000000e+01
0.0000000000000000e+00 1.0000000000000000e+01
ITEM: ATOMS id type x y z vx vy vz
5 2 5.11009 4.4857 3.54451 7.34023 -20.6248 -18.7892
1 1 4.66646 4.65314 4.52865 -3.80347 1.79278 4.31498
6 2 3.71301 4.17042 4.70281 -28.7181 7.25053 4.77141
2 1 5.33076 5.34421 5.46838 4.33302 -2.04006 -2.9194
3 2 6.27978 5.87566 5.32979 21.0251 -3.06157 -7.0515
4 2 4.93264 5.49937 6.46007 -5.95726 19.3824 4.43944
ITEM: TIMESTEP
51300
ITEM: NUMBER OF ATOMS
6
ITEM: BOX BOUNDS pp pp pp
0.0000000000000000e+00 1.0000000000000000e+01
0.0000000000000000e+00 1.0000000000000000e+01
0.0000000000000000e+00 1.0000000000000000e+01
ITEM: ATOMS id type x y z vx vy vz
5 2 4.05514 3.70297 4.89257 -7.98385 19.3409 21.6485
1 1 4.38499 4.78238 4.86807 -2.23216 2.5805 2.73975
6 2 3.5409 5.4757 4.54764 5.91058 -5.45922 0.187285
2 1 5.62072 5.21817 5.13086 2.6571 -1.9131 -2.19028
3 2 6.41891 4.51491 5.41895 -6.97698 -6.19731 -2.37346
4 2 5.91946 6.29943 5.15538 3.98661 -15.6372 -26.0098
ITEM: TIMESTEP
51400
ITEM: NUMBER OF ATOMS
6
ITEM: BOX BOUNDS pp pp pp
0.0000000000000000e+00 1.0000000000000000e+01
0.0000000000000000e+00 1.0000000000000000e+01
0.0000000000000000e+00 1.0000000000000000e+01
ITEM: ATOMS id type x y z vx vy vz
5 2 4.13651 5.31364 6.2214 13.116 15.8863 -3.1547
1 1 4.38658 5.19423 5.20315 2.00999 5.37481 3.27101
6 2 3.57808 5.35008 4.5514 9.04055 -9.53542 1.91285
2 1 5.61337 4.80211 4.7964 -3.62053 -5.03562 -1.36343
3 2 6.42104 4.63738 5.47407 0.115998 9.96549 -10.5186
4 2 5.86738 4.74205 3.76033 -3.08121 -20.3581 -10.9705
ITEM: TIMESTEP
51500
ITEM: NUMBER OF ATOMS
6
ITEM: BOX BOUNDS pp pp pp
0.0000000000000000e+00 1.0000000000000000e+01
0.0000000000000000e+00 1.0000000000000000e+01
0.0000000000000000e+00 1.0000000000000000e+01
ITEM: ATOMS id type x y z vx vy vz
5 2 5.1402 6.54813 5.21877 19.6009 12.4101 -15.7262
1 1 4.69901 5.52772 5.28537 3.73159 -0.563177 -2.06412
6 2 3.71213 5.43464 5.79568 -6.22179 5.23034 24.5778
2 1 5.29908 4.4765 4.71787 -3.54621 -0.673459 2.32094
3 2 6.30875 4.50892 4.205 -5.61181 -3.19598 -27.8886
4 2 4.864 3.45756 4.74369 -9.97622 0.291408 15.9768
ITEM: TIMESTEP
51600
ITEM: NUMBER OF ATOMS
6
ITEM: BOX BOUNDS pp pp pp
0.0000000000000000e+00 1.0000000000000000e+01
0.0000000000000000e+00 1.0000000000000000e+01
0.0000000000000000e+00 1.0000000000000000e+01
ITEM: ATOMS id type x y z vx vy vz
5 2 4.89516 6.4812 4.46951 0.485725 -13.0225 11.8606
1 1 5.16668 5.63469 5.12926 5.48866 -0.560543 -3.54371
6 2 5.67993 5.91879 6.06875 2.87698 -8.7453 -26.9523
2 1 4.83034 4.3624 4.87118 -4.98137 -0.524714 3.11158
3 2 4.35759 4.11458 3.94275 -15.2807 16.6277 25.3499
4 2 5.10521 3.51967 5.51555 5.87311 18.0721 -5.1088
ITEM: TIMESTEP
51700
ITEM: NUMBER OF ATOMS
6
ITEM: BOX BOUNDS pp pp pp
0.0000000000000000e+00 1.0000000000000000e+01
0.0000000000000000e+00 1.0000000000000000e+01
0.0000000000000000e+00 1.0000000000000000e+01
ITEM: ATOMS id type x y z vx vy vz
5 2 5.28281 6.47904 4.80633 5.03104 4.30071 9.1814
1 1 5.44978 5.43592 4.75704 -1.90715 -3.21968 -3.70361
6 2 6.34511 5.13386 4.25652 0.361104 -27.3566 -13.5969
2 1 4.55027 4.56317 5.24708 2.32393 5.27976 3.58041
3 2 3.63148 4.88736 5.73506 -0.550257 18.0564 20.1425
4 2 4.74248 3.5101 5.15471 -9.80821 -19.5486 -14.259
ITEM: TIMESTEP
51800
ITEM: NUMBER OF ATOMS
6
ITEM: BOX BOUNDS pp pp pp
0.0000000000000000e+00 1.0000000000000000e+01
0.0000000000000000e+00 1.0000000000000000e+01
0.0000000000000000e+00 1.0000000000000000e+01
ITEM: ATOMS id type x y z vx vy vz
5 2 6.49176 5.37613 4.63373 1.35981 -14.7802 7.78413
1 1 5.40849 5.06899 4.47482 -3.717 -5.16036 -2.25547
6 2 5.01231 4.99906 3.43861 -12.1621 2.68368 -2.42141
2 1 4.5946 4.92776 5.51968 2.89634 4.48377 2.04484
3 2 4.96369 5.00384 6.57893 9.50784 -7.2674 -2.40464
4 2 3.49773 4.6593 5.41609 11.0735 27.4263 -0.448236
ITEM: TIMESTEP
51900
ITEM: NUMBER OF ATOMS
6
ITEM: BOX BOUNDS pp pp pp
0.0000000000000000e+00 1.0000000000000000e+01
0.0000000000000000e+00 1.0000000000000000e+01
0.0000000000000000e+00 1.0000000000000000e+01
ITEM: ATOMS id type x y z vx vy vz
5 2 5.26684 3.66769 4.28933 -15.7566 5.59469 1.83492
1 1 5.04938 4.70224 4.40126 -6.52154 -3.07611 0.962572
6 2 4.88589 5.29417 3.50502 10.1005 -6.82569 16.6284
2 1 4.95374 5.29793 5.60062 5.74201 3.16646 0.174107
3 2 5.06161 4.70594 6.46927 -7.00185 -2.94282 -18.4034
4 2 4.75082 6.32984 5.71568 21.9469 3.0972 -13.6047
ITEM: TIMESTEP
52000
ITEM: NUMBER OF ATOMS
6
ITEM: BOX BOUNDS pp pp pp
0.0000000000000000e+00 1.0000000000000000e+01
0.0000000000000000e+00 1.0000000000000000e+01
0.0000000000000000e+00 1.0000000000000000e+01
ITEM: ATOMS id type x y z vx vy vz
5 2 3.54934 4.52151 4.81393 -12.1322 17.8161 10.7571
1 1 4.61283 4.65558 4.58638 -4.44456 2.03154 4.63692
6 2 4.95281 4.29709 3.6136 9.70752 -20.6876 -9.88727
2 1 5.39042 5.34286 5.41745 3.30619 -2.13618 -5.00001
3 2 5.00375 5.74629 6.38113 -6.49257 18.3764 7.95623
4 2 6.45778 5.4532 5.14751 22.4822 -14.2581 -4.49937
ITEM: TIMESTEP
52100
ITEM: NUMBER OF ATOMS
6
ITEM: BOX BOUNDS pp pp pp
0.0000000000000000e+00 1.0000000000000000e+01
0.0000000000000000e+00 1.0000000000000000e+01
0.0000000000000000e+00 1.0000000000000000e+01
ITEM: ATOMS id type x y z vx vy vz
5 2 3.66102 5.6029 4.50465 13.4886 2.71545 -9.29628
1 1 4.3542 4.85022 4.94977 -2.85967 1.55476 6.37813
6 2 3.99932 3.84563 5.24095 0.996823 22.5715 10.3966
2 1 5.64064 5.1491 5.05523 3.03365 -1.97293 -5.79792
3 2 6.03453 6.12789 4.71496 1.58164 -28.8508 -7.55843
4 2 6.36896 4.43136 5.4816 -18.1401 8.54678 -0.455739
ITEM: TIMESTEP
52200
ITEM: NUMBER OF ATOMS
6
ITEM: BOX BOUNDS pp pp pp
0.0000000000000000e+00 1.0000000000000000e+01
0.0000000000000000e+00 1.0000000000000000e+01
0.0000000000000000e+00 1.0000000000000000e+01
ITEM: ATOMS id type x y z vx vy vz
5 2 3.58061 5.37109 4.63145 -8.97502 -5.48428 15.1142
1 1 4.43582 5.25965 5.23724 2.76526 4.65778 -0.0988577
6 2 4.43478 5.65682 6.24226 11.975 17.9073 1.34089
2 1 5.56288 4.73999 4.7598 -1.78399 -4.15058 -0.660129
3 2 5.58805 4.32246 3.79027 -21.1454 -20.994 -9.35271
4 2 6.41444 4.65352 5.37315 6.45259 2.52716 1.9418
ITEM: TIMESTEP
52300
ITEM: NUMBER OF ATOMS
6
ITEM: BOX BOUNDS pp pp pp
0.0000000000000000e+00 1.0000000000000000e+01
0.0000000000000000e+00 1.0000000000000000e+01
0.0000000000000000e+00 1.0000000000000000e+01
ITEM: ATOMS id type x y z vx vy vz
5 2 3.95392 5.55757 6.01953 13.2149 4.60038 13.3577
1 1 4.79385 5.56405 5.26786 5.31595 2.09812 0.51523
6 2 5.18402 6.54834 4.97091 -1.86209 7.50136 -19.6688
2 1 5.21165 4.43275 4.73384 -6.4042 -2.05925 -0.295584
3 2 4.76395 3.44767 5.04388 1.84306 -5.17229 16.4546
4 2 6.03502 4.48416 3.94722 -0.228195 -7.39254 -12.7608
ITEM: TIMESTEP
52400
ITEM: NUMBER OF ATOMS
6
ITEM: BOX BOUNDS pp pp pp
0.0000000000000000e+00 1.0000000000000000e+01
0.0000000000000000e+00 1.0000000000000000e+01
0.0000000000000000e+00 1.0000000000000000e+01
ITEM: ATOMS id type x y z vx vy vz
5 2 6.02054 5.82049 5.79127 12.0871 -7.97851 -18.9787
1 1 5.24532 5.61409 5.07885 4.51149 1.52282 -4.79581
6 2 4.87707 6.40624 4.43852 1.01483 -8.55468 12.7212
2 1 4.75927 4.38808 4.91651 -5.25907 -1.2547 4.07894
3 2 5.0883 3.59056 5.58638 -10.925 3.85548 -16.7392
4 2 3.96183 4.15648 4.24088 6.73139 9.48269 31.5389
ITEM: TIMESTEP
52500
ITEM: NUMBER OF ATOMS
6
ITEM: BOX BOUNDS pp pp pp
0.0000000000000000e+00 1.0000000000000000e+01
0.0000000000000000e+00 1.0000000000000000e+01
0.0000000000000000e+00 1.0000000000000000e+01
ITEM: ATOMS id type x y z vx vy vz
5 2 6.14918 4.92629 3.97259 -1.02793 1.37745 -26.493
1 1 5.45524 5.3709 4.68624 0.847211 -5.77786 -3.14623
6 2 5.5113 6.4515 4.87419 17.915 11.7291 1.6348
2 1 4.54379 4.62793 5.30991 -2.00952 5.45938 2.56836
3 2 4.49971 3.57957 5.16556 -5.44635 -17.9546 -1.53748
4 2 3.85383 5.05616 6.03527 2.4094 8.64304 33.2817
ITEM: TIMESTEP
52600
ITEM: NUMBER OF ATOMS
6
ITEM: BOX BOUNDS pp pp pp
0.0000000000000000e+00 1.0000000000000000e+01
0.0000000000000000e+00 1.0000000000000000e+01
0.0000000000000000e+00 1.0000000000000000e+01
ITEM: ATOMS id type x y z vx vy vz
5 2 4.86708 5.0449 3.45403 4.13097 5.74973 9.20322
1 1 5.36716 4.99897 4.44905 -0.551158 -4.73385 -3.29726
6 2 6.46981 4.90133 4.41866 -15.6773 -20.8643 -16.0901
2 1 4.6347 4.99803 5.55684 0.432814 5.5772 2.36365
3 2 3.49331 5.10435 5.51235 9.74808 13.649 13.1367
4 2 5.15007 4.98479 6.54646 3.20842 -8.58397 4.87517
ITEM: TIMESTEP
52700
ITEM: NUMBER OF ATOMS
6
ITEM: BOX BOUNDS pp pp pp
0.0000000000000000e+00 1.0000000000000000e+01
0.0000000000000000e+00 1.0000000000000000e+01
0.0000000000000000e+00 1.0000000000000000e+01
ITEM: ATOMS id type x y z vx vy vz
5 2 4.96773 5.17649 3.47675 -1.77515 -1.85312 -6.90993
1 1 4.95068 4.67425 4.41271 -3.90463 -3.1527 0.458884
6 2 4.84514 3.62024 4.40993 -27.3418 -3.69668 0.0469405
2 1 5.04247 5.32611 5.5858 4.40341 1.86433 0.409108
3 2 5.17801 6.38095 5.60786 25.9581 -3.66237 9.20769
4 2 5.09315 4.81755 6.52501 -2.78463 24.5645 -12.6878
ITEM: TIMESTEP
52800
ITEM: NUMBER OF ATOMS
6
ITEM: BOX BOUNDS pp pp pp
0.0000000000000000e+00 1.0000000000000000e+01
0.0000000000000000e+00 1.0000000000000000e+01
0.0000000000000000e+00 1.0000000000000000e+01
ITEM: ATOMS id type x y z vx vy vz
5 2 4.8222 3.97386 3.82106 -18.9827 -18.9715 -1.45886
1 1 4.53433 4.68576 4.63554 -1.58374 0.130386 3.26049
6 2 3.43431 4.7889 4.88638 -11.7499 12.5506 -3.88153
2 1 5.46629 5.31634 5.35907 2.20834 0.35959 -3.85601
3 2 6.53294 5.21625 5.16169 10.1006 -26.0347 0.197731
4 2 5.20556 5.99555 6.1969 13.1893 26.617 12.2389
ITEM: TIMESTEP
52900
ITEM: NUMBER OF ATOMS
6
ITEM: BOX BOUNDS pp pp pp
0.0000000000000000e+00 1.0000000000000000e+01
0.0000000000000000e+00 1.0000000000000000e+01
0.0000000000000000e+00 1.0000000000000000e+01
ITEM: ATOMS id type x y z vx vy vz
5 2 3.85327 4.14422 5.61562 4.47412 37.8699 5.82465
1 1 4.33282 4.92096 5.01067 -3.3134 2.90117 2.88903
6 2 3.63263 5.58153 4.52161 3.09202 -9.4584 11.3532
2 1 5.67084 5.08089 4.98699 3.03475 -3.95981 -3.38391
3 2 6.36583 4.377 5.52283 -0.371075 9.9951 -1.85622
4 2 6.10705 5.87486 4.36955 -3.87473 -25.7917 -9.42467
ITEM: TIMESTEP
53000
ITEM: NUMBER OF ATOMS
6
ITEM: BOX BOUNDS pp pp pp
0.0000000000000000e+00 1.0000000000000000e+01
0.0000000000000000e+00 1.0000000000000000e+01
0.0000000000000000e+00 1.0000000000000000e+01
ITEM: ATOMS id type x y z vx vy vz
2 1 5.51071 4.6426 4.73259 -3.42544 -2.19429 -1.19502
4 2 5.39594 4.01493 3.86148 -6.00966 -20.2812 12.3765
6 2 3.51251 5.29207 4.83975 -10.7057 3.41709 1.88234
3 2 6.48718 4.66782 5.14655 12.8567 -7.01466 -16.08
5 2 4.57926 5.96744 6.15636 20.4315 34.4626 10.1604
1 1 4.4916 5.36221 5.26722 2.03464 1.3061 0.495191
ITEM: TIMESTEP
53100
ITEM: NUMBER OF ATOMS
6
ITEM: BOX BOUNDS pp pp pp
0.0000000000000000e+00 1.0000000000000000e+01
0.0000000000000000e+00 1.0000000000000000e+01
0.0000000000000000e+00 1.0000000000000000e+01
ITEM: ATOMS id type x y z vx vy vz
2 1 5.13467 4.39452 4.74371 -3.77232 -2.13461 1.04566
4 2 4.82303 3.43691 5.22678 -1.71859 -7.95951 14.4204
6 2 4.34507 5.75687 6.27329 20.6002 7.21037 7.00111
3 2 5.6562 4.23275 3.76942 -22.4404 -3.56709 -8.29695
5 2 5.25496 6.53543 4.7616 -5.92006 -2.37597 -0.823632
1 1 4.85888 5.60863 5.25383 4.56779 2.69622 -2.07796
ITEM: TIMESTEP
53200
ITEM: NUMBER OF ATOMS
6
ITEM: BOX BOUNDS pp pp pp
0.0000000000000000e+00 1.0000000000000000e+01
0.0000000000000000e+00 1.0000000000000000e+01
0.0000000000000000e+00 1.0000000000000000e+01
ITEM: ATOMS id type x y z vx vy vz
2 1 4.67024 4.4044 5.00863 -4.53021 0.27817 2.34716
4 2 5.10643 3.53601 5.46736 -1.00636 12.6042 -4.06867
6 2 6.25131 5.75192 5.46778 2.1131 -9.12485 -35.1893
3 2 3.71465 4.26722 4.50556 -6.0389 6.10131 23.2702
5 2 4.94489 6.47919 4.5118 8.85961 -12.2255 4.69109
1 1 5.32851 5.59269 4.9955 4.20062 -0.0562131 -1.39914
ITEM: TIMESTEP
53300
ITEM: NUMBER OF ATOMS
6
ITEM: BOX BOUNDS pp pp pp
0.0000000000000000e+00 1.0000000000000000e+01
0.0000000000000000e+00 1.0000000000000000e+01
0.0000000000000000e+00 1.0000000000000000e+01
ITEM: ATOMS id type x y z vx vy vz
2 1 4.54515 4.68132 5.38143 2.36573 2.3871 1.53162
4 2 4.14096 3.68128 5.17264 -23.6605 4.75268 3.63603
6 2 5.93304 4.81372 3.7521 -14.6312 -18.3188 -24.2328
3 2 4.09315 5.18476 6.24 5.62527 12.8598 17.5966
5 2 5.83972 6.30933 4.84264 22.2556 17.7868 11.1353
1 1 5.45447 5.31957 4.6181 -1.49205 -3.8205 -2.21432
ITEM: TIMESTEP
53400
ITEM: NUMBER OF ATOMS
6
ITEM: BOX BOUNDS pp pp pp
0.0000000000000000e+00 1.0000000000000000e+01
0.0000000000000000e+00 1.0000000000000000e+01
0.0000000000000000e+00 1.0000000000000000e+01
ITEM: ATOMS id type x y z vx vy vz
2 1 4.70247 5.09124 5.59178 1.80579 2.92403 1.88008
4 2 3.65468 5.45367 5.67949 15.1946 22.543 0.536775
6 2 4.80492 5.12502 3.42311 -4.67701 3.67677 9.38861
3 2 5.14514 4.84834 6.56513 7.22092 1.93176 -17.4266
5 2 6.36564 4.51151 4.37106 -29.6885 -17.2916 -5.16257
1 1 5.30022 4.91388 4.40511 -0.802943 -3.8354 -0.817336
ITEM: TIMESTEP
53500
ITEM: NUMBER OF ATOMS
6
ITEM: BOX BOUNDS pp pp pp
0.0000000000000000e+00 1.0000000000000000e+01
0.0000000000000000e+00 1.0000000000000000e+01
0.0000000000000000e+00 1.0000000000000000e+01
ITEM: ATOMS id type x y z vx vy vz
2 1 5.15986 5.34993 5.55472 4.2497 -1.36948 -1.42124
4 2 5.50395 6.35001 5.49103 18.6545 0.789346 -21.3509
6 2 5.00684 5.02708 3.48009 2.52573 -16.9325 7.88814
3 2 4.96222 4.95764 6.5474 -4.19494 0.8999 3.83312
5 2 4.46429 3.66425 4.47176 -24.6127 6.97665 16.8421
1 1 4.84561 4.65012 4.44624 -3.60961 2.06321 0.815971
ITEM: TIMESTEP
53600
ITEM: NUMBER OF ATOMS
6
ITEM: BOX BOUNDS pp pp pp
0.0000000000000000e+00 1.0000000000000000e+01
0.0000000000000000e+00 1.0000000000000000e+01
0.0000000000000000e+00 1.0000000000000000e+01
ITEM: ATOMS id type x y z vx vy vz
2 1 5.52573 5.28844 5.29272 1.66668 -4.82799 -3.71998
4 2 6.5896 4.92905 5.15264 -3.71252 -6.56778 -4.44929
6 2 4.59771 3.7949 4.06671 3.58669 -24.8243 10.2165
3 2 5.39232 6.18498 5.93778 5.5562 16.9147 -16.539
5 2 3.43561 5.08264 4.81826 -9.45962 25.9684 4.23287
1 1 4.47319 4.71223 4.70949 -1.32854 3.86365 4.26873
ITEM: TIMESTEP
53700
ITEM: NUMBER OF ATOMS
6
ITEM: BOX BOUNDS pp pp pp
0.0000000000000000e+00 1.0000000000000000e+01
0.0000000000000000e+00 1.0000000000000000e+01
0.0000000000000000e+00 1.0000000000000000e+01
ITEM: ATOMS id type x y z vx vy vz
2 1 5.65847 4.99438 4.89469 -0.422256 -3.07721 -3.57136
4 2 6.30933 4.44635 5.55233 -7.97559 -0.418406 0.322414
6 2 3.86843 4.41157 5.89939 16.5827 26.6103 1.27874
3 2 6.17552 5.58968 4.16476 -20.8932 -30.8174 -2.33895
5 2 3.68604 5.56596 4.40685 13.0064 -10.9229 9.44536
1 1 4.33843 5.00445 5.1035 0.361807 4.38203 2.84062
ITEM: TIMESTEP
53800
ITEM: NUMBER OF ATOMS
6
ITEM: BOX BOUNDS pp pp pp
0.0000000000000000e+00 1.0000000000000000e+01
0.0000000000000000e+00 1.0000000000000000e+01
0.0000000000000000e+00 1.0000000000000000e+01
ITEM: ATOMS id type x y z vx vy vz
2 1 5.44548 4.57728 4.73192 -5.50728 -2.80179 2.09755
4 2 6.49711 4.68173 4.92412 6.04936 14.6206 -8.91563
6 2 4.86653 6.20709 5.92022 9.82674 16.9221 -2.9889
3 2 5.1054 3.81331 4.01495 -25.3269 -24.0216 -7.31795
5 2 3.50979 5.34069 5.08473 -6.4564 -7.62335 14.2989
1 1 4.5565 5.4191 5.27293 6.84222 2.81037 -1.68436
ITEM: TIMESTEP
53900
ITEM: NUMBER OF ATOMS
6
ITEM: BOX BOUNDS pp pp pp
0.0000000000000000e+00 1.0000000000000000e+01
0.0000000000000000e+00 1.0000000000000000e+01
0.0000000000000000e+00 1.0000000000000000e+01
ITEM: ATOMS id type x y z vx vy vz
2 1 5.02471 4.3787 4.76864 -3.83674 0.631634 1.84565
4 2 5.33559 4.15892 3.68749 -28.8414 -4.66157 5.49316
6 2 5.10801 6.49529 4.54479 -0.318809 -11.4852 -13.8217
3 2 4.84564 3.5399 5.46423 3.57825 12.4721 -1.22108
5 2 4.69224 5.84832 6.2938 19.8271 3.29033 4.71221
1 1 4.97705 5.61771 5.23232 4.31968 -0.599381 -1.43969
ITEM: TIMESTEP
54000
ITEM: NUMBER OF ATOMS
6
ITEM: BOX BOUNDS pp pp pp
0.0000000000000000e+00 1.0000000000000000e+01
0.0000000000000000e+00 1.0000000000000000e+01
0.0000000000000000e+00 1.0000000000000000e+01
ITEM: ATOMS id type x y z vx vy vz
4 2 3.61411 4.48227 4.83639 -2.9684 12.8731 20.6065
6 2 4.92733 6.4591 4.57086 4.81335 -4.30001 9.88078
1 1 5.37883 5.54539 4.91277 3.0922 -3.19606 -5.72372
2 1 4.62328 4.45818 5.08776 -1.87403 2.7892 5.43605
3 2 5.02064 3.52632 5.43612 -4.77845 6.5213 -13.9031
5 2 6.41513 5.48945 5.15206 -11.5824 -10.2462 -13.1563
ITEM: TIMESTEP
54100
ITEM: NUMBER OF ATOMS
6
ITEM: BOX BOUNDS pp pp pp
0.0000000000000000e+00 1.0000000000000000e+01
0.0000000000000000e+00 1.0000000000000000e+01
0.0000000000000000e+00 1.0000000000000000e+01
ITEM: ATOMS id type x y z vx vy vz
4 2 4.40627 5.25678 6.4305 19.5059 9.65395 14.4435
6 2 6.00791 6.13292 4.79518 22.5024 -1.92496 -5.82414
1 1 5.45221 5.22583 4.57124 -3.15772 -3.99904 -0.354486
2 1 4.54994 4.77315 5.43261 2.66969 4.44449 1.94271
3 2 3.98178 3.86056 5.15778 -26.9998 -4.63035 -10.6338
5 2 5.58082 4.76142 3.57241 -9.19307 -8.40659 -16.911
ITEM: TIMESTEP
54200
ITEM: NUMBER OF ATOMS
6
ITEM: BOX BOUNDS pp pp pp
0.0000000000000000e+00 1.0000000000000000e+01
0.0000000000000000e+00 1.0000000000000000e+01
0.0000000000000000e+00 1.0000000000000000e+01
ITEM: ATOMS id type x y z vx vy vz
4 2 5.28489 4.77719 6.49568 -14.3478 0.748274 -4.92689
6 2 6.14888 4.20955 4.28387 -22.5192 -1.9991 7.8048
1 1 5.22651 4.83085 4.40172 -5.16452 -4.5737 -2.55295
2 1 4.76863 5.1686 5.60167 4.65191 4.45663 1.88996
3 2 3.86833 5.80932 5.68755 37.0828 1.81112 0.682934
5 2 4.75814 5.21019 3.49432 5.89236 0.834701 4.33941
ITEM: TIMESTEP
54300
ITEM: NUMBER OF ATOMS
6
ITEM: BOX BOUNDS pp pp pp
0.0000000000000000e+00 1.0000000000000000e+01
0.0000000000000000e+00 1.0000000000000000e+01
0.0000000000000000e+00 1.0000000000000000e+01
ITEM: ATOMS id type x y z vx vy vz
4 2 4.99476 5.09553 6.49526 -5.14805 13.9917 5.8175
6 2 4.11148 3.80888 4.66573 -21.778 -6.57073 5.66268
1 1 4.76001 4.63254 4.49251 -5.38291 0.587736 2.051
2 1 5.23949 5.36424 5.50528 4.86725 -0.510548 -3.23606
3 2 5.90109 6.18046 5.37173 28.8608 0.473293 -2.03268
5 2 5.00092 4.95316 3.49529 4.2099 -8.81402 4.67374
ITEM: TIMESTEP
54400
ITEM: NUMBER OF ATOMS
6
ITEM: BOX BOUNDS pp pp pp
0.0000000000000000e+00 1.0000000000000000e+01
0.0000000000000000e+00 1.0000000000000000e+01
0.0000000000000000e+00 1.0000000000000000e+01
ITEM: ATOMS id type x y z vx vy vz
4 2 5.63996 6.30813 5.65234 7.83654 11.3031 -12.6541
6 2 3.50323 5.35082 4.83016 1.1825 -0.0277987 -8.76506
1 1 4.42894 4.73884 4.78758 -3.78544 3.30214 4.72716
2 1 5.57001 5.26077 5.21438 4.33598 -2.36062 -4.51922
3 2 6.4993 4.62096 5.19112 2.85789 -11.9892 9.79815
5 2 4.37247 3.72425 4.3048 -18.4372 -10.5053 9.14325
ITEM: TIMESTEP
54500
ITEM: NUMBER OF ATOMS
6
ITEM: BOX BOUNDS pp pp pp
0.0000000000000000e+00 1.0000000000000000e+01
0.0000000000000000e+00 1.0000000000000000e+01
0.0000000000000000e+00 1.0000000000000000e+01
ITEM: ATOMS id type x y z vx vy vz
4 2 6.00187 5.20994 3.87425 0.0902895 -27.5059 14.9969
6 2 3.67294 5.58934 4.4762 -0.178236 -10.5539 0.184816
1 1 4.35842 5.08628 5.15773 -0.990674 5.45282 6.20307
2 1 5.64705 4.915 4.84493 1.09821 -5.09188 -5.98052
3 2 6.31045 4.42123 5.53756 -4.87574 12.1458 -12.8446
5 2 3.95193 4.76377 6.08205 3.68224 21.613 -4.989
ITEM: TIMESTEP
54600
ITEM: NUMBER OF ATOMS
6
ITEM: BOX BOUNDS pp pp pp
0.0000000000000000e+00 1.0000000000000000e+01
0.0000000000000000e+00 1.0000000000000000e+01
0.0000000000000000e+00 1.0000000000000000e+01
ITEM: ATOMS id type x y z vx vy vz
4 2 4.93514 3.61094 4.3241 -10.9211 -31.0431 8.12466
6 2 3.54384 5.43286 5.28811 -15.6917 6.95654 19.0137
1 1 4.62573 5.47234 5.28675 2.8632 2.66663 0.433323
2 1 5.37025 4.52834 4.7137 -3.07596 -0.899125 -0.182117
3 2 6.44257 4.57115 4.68713 13.8049 -15.5297 -17.8718
5 2 5.12878 6.37652 5.69701 15.3432 18.5546 -12.26
ITEM: TIMESTEP
54700
ITEM: NUMBER OF ATOMS
6
ITEM: BOX BOUNDS pp pp pp
0.0000000000000000e+00 1.0000000000000000e+01
0.0000000000000000e+00 1.0000000000000000e+01
0.0000000000000000e+00 1.0000000000000000e+01
ITEM: ATOMS id type x y z vx vy vz
4 2 4.86384 3.52197 5.5407 9.92822 6.09698 -0.677118
6 2 5.09505 5.89815 6.27356 21.0535 7.20947 -23.0156
1 1 5.05904 5.63891 5.18213 6.52156 1.82201 -1.16551
2 1 4.94468 4.36433 4.81834 -7.16415 -2.77478 1.7227
3 2 4.85818 4.07211 3.71747 -12.8522 -3.65818 7.92692
5 2 5.14103 6.46878 4.46445 -10.4723 1.7051 9.12617
ITEM: TIMESTEP
54800
ITEM: NUMBER OF ATOMS
6
ITEM: BOX BOUNDS pp pp pp
0.0000000000000000e+00 1.0000000000000000e+01
0.0000000000000000e+00 1.0000000000000000e+01
0.0000000000000000e+00 1.0000000000000000e+01
ITEM: ATOMS id type x y z vx vy vz
4 2 4.94871 3.53853 5.44166 -19.155 3.38796 0.965607
6 2 6.47697 5.37216 4.77554 9.52844 -10.2811 -26.2072
1 1 5.42701 5.49166 4.84518 0.800303 -1.37608 -3.91937
2 1 4.5683 4.50569 5.15259 -1.53189 0.760128 3.83415
3 2 3.53761 4.65779 5.24065 5.99207 9.49201 19.6599
5 2 5.09493 6.46264 4.57042 12.3521 4.7408 6.59724
ITEM: TIMESTEP
54900
ITEM: NUMBER OF ATOMS
6
ITEM: BOX BOUNDS pp pp pp
0.0000000000000000e+00 1.0000000000000000e+01