LAMMPS data file via write_data, version 2 Aug 2023, timestep = 69570, units = metal

6 atoms
2 atom types

0 10 xlo xhi
0 10 ylo yhi
0 10 zlo zhi

Masses

1 12.0107
2 1.00794

Atoms # atomic

6 2 5.472649322491345 6.198594719556283 4.179996991671132 0 0 0
1 1 5.250686794202922 5.618696521194431 5.04824337131625 0 0 0
5 2 5.506574689276048 6.0867196362581755 5.985293350975826 0 0 0
4 2 4.441092829767559 3.9425448282305995 3.995874155899948 0 0 0
2 1 4.753584333914056 4.376408419356873 4.948393039629554 0 0 0
3 2 4.531169370014825 3.8300681366141394 5.880685701299775 0 0 0

Velocities

6 -9.491268137898116 -4.861338358829224 -6.716791794509787
1 3.7750115672092455 -1.108096777789826 -2.1853545463649904
5 15.590221182149955 -21.584616962152786 -21.0328239664641
4 -12.034114686330772 19.99193219570819 22.469287348493364
2 -4.154662448754473 0.27179590156357836 3.373522941368798
3 10.45911430093996 16.419456518222802 -8.8779886915843
