ITEM: TIMESTEP
49600
ITEM: NUMBER OF ATOMS
6
ITEM: BOX BOUNDS pp pp pp
0.0000000000000000e+00 1.0000000000000000e+01
0.0000000000000000e+00 1.0000000000000000e+01
0.0000000000000000e+00 1.0000000000000000e+01
ITEM: ATOMS id type x y z vx vy vz
2 1 4.90612 4.35158 4.82935 -6.18553 -1.54396 4.80866
3 2 5.13682 3.97871 3.81455 -22.2656 -19.5851 -12.5078
5 2 5.35995 6.37801 4.4375 -7.24792 1.48579 -12.4174
4 2 4.61587 3.59894 5.57803 11.4949 11.5324 -11.7989
6 2 4.86801 6.03193 6.1612 20.0702 6.57488 27.6101
1 1 5.09571 5.64942 5.17154 6.01336 1.54329 -4.04382
ITEM: TIMESTEP
49700
ITEM: NUMBER OF ATOMS
6
ITEM: BOX BOUNDS pp pp pp
0.0000000000000000e+00 1.0000000000000000e+01
0.0000000000000000e+00 1.0000000000000000e+01
0.0000000000000000e+00 1.0000000000000000e+01
ITEM: ATOMS id type x y z vx vy vz
2 1 4.53466 4.57257 5.23694 -4.20368 4.51138 7.21918
3 2 3.49301 4.77325 5.27585 15.7378 10.8474 12.0456
5 2 5.17089 6.45617 4.34995 6.465 11.1293 4.94249
4 2 4.81258 3.57139 5.63518 -2.92269 -18.3214 -6.05171
6 2 6.54119 5.14834 4.75881 -6.38595 -5.96925 -18.8373
1 1 5.46407 5.43166 4.76156 3.1216 -4.31719 -6.55614
ITEM: TIMESTEP
49800
ITEM: NUMBER OF ATOMS
6
ITEM: BOX BOUNDS pp pp pp
0.0000000000000000e+00 1.0000000000000000e+01
0.0000000000000000e+00 1.0000000000000000e+01
0.0000000000000000e+00 1.0000000000000000e+01
ITEM: ATOMS id type x y z vx vy vz
2 1 4.62497 4.98774 5.56615 1.01787 4.21016 2.45464
3 2 5.05399 5.41974 6.5236 22.6516 -1.45962 7.91562
5 2 6.29475 5.52291 4.37502 -10.2918 -35.6081 -6.92153
4 2 3.70566 4.4673 5.63323 -9.52625 17.2674 4.71631
6 2 5.02423 4.61564 3.47198 -11.6093 10.5085 1.92516
1 1 5.36863 5.01007 4.43368 -0.281405 -3.43039 -3.09542
ITEM: TIMESTEP
49900
ITEM: NUMBER OF ATOMS
6
ITEM: BOX BOUNDS pp pp pp
0.0000000000000000e+00 1.0000000000000000e+01
0.0000000000000000e+00 1.0000000000000000e+01
0.0000000000000000e+00 1.0000000000000000e+01
ITEM: ATOMS id type x y z vx vy vz
2 1 5.08386 5.34378 5.57449 7.78296 2.92314 -2.36857
3 2 5.42577 4.90174 6.49049 -8.32914 2.99562 10.0877
5 2 5.10137 3.55943 4.36076 -13.8774 -24.6545 11.1202
4 2 4.87415 6.46117 5.62605 18.4083 -6.90358 -6.32622
6 2 4.58921 5.1205 3.53401 5.99093 16.5645 -11.4968
1 1 4.91715 4.65259 4.42472 -7.96697 -1.91627 2.08451
ITEM: TIMESTEP
50000
ITEM: NUMBER OF ATOMS
6
ITEM: BOX BOUNDS pp pp pp
0.0000000000000000e+00 1.0000000000000000e+01
0.0000000000000000e+00 1.0000000000000000e+01
0.0000000000000000e+00 1.0000000000000000e+01
ITEM: ATOMS id type x y z vx vy vz
2 1 5.55066 5.2853 5.2627 3.3245 -0.599656 -1.79527
3 2 5.54391 5.80674 6.22586 -1.51665 4.15027 -26.5983
5 2 3.45511 4.85715 5.17117 -2.16375 24.0916 3.54103
4 2 6.52966 5.15277 4.86016 9.55287 -27.6444 -7.82422
6 2 4.49989 4.1449 3.72981 -9.98396 -8.30433 15.4706
1 1 4.44714 4.71789 4.73855 -2.97946 1.24641 3.08856
ITEM: TIMESTEP
50100
ITEM: NUMBER OF ATOMS
6
ITEM: BOX BOUNDS pp pp pp
0.0000000000000000e+00 1.0000000000000000e+01
0.0000000000000000e+00 1.0000000000000000e+01
0.0000000000000000e+00 1.0000000000000000e+01
ITEM: ATOMS id type x y z vx vy vz
6 2 3.82075 4.47707 5.83766 9.60113 11.4359 13.1772
1 1 4.34617 5.06547 5.14583 0.268581 8.0774 4.184
4 2 6.26057 4.1513 5.32467 -7.85684 3.64015 11.7296
5 2 3.72827 5.85135 4.66884 14.948 -23.5077 0.472754
2 1 5.65729 4.92858 4.85739 -1.79631 -7.5429 -3.86509
3 2 6.15157 5.59081 4.13228 1.51228 2.06258 -29.1797
ITEM: TIMESTEP
50200
ITEM: NUMBER OF ATOMS
6
ITEM: BOX BOUNDS pp pp pp
0.0000000000000000e+00 1.0000000000000000e+01
0.0000000000000000e+00 1.0000000000000000e+01
0.0000000000000000e+00 1.0000000000000000e+01
ITEM: ATOMS id type x y z vx vy vz
6 2 5.24526 6.26879 5.85225 17.9089 -0.50077 -24.7105
1 1 4.68558 5.51684 5.29572 7.91041 3.37906 1.20664
4 2 6.40445 4.29575 4.86594 -1.46797 3.70825 -13.6358
5 2 3.64069 5.7113 5.15779 -31.6808 -1.25622 -0.801529
2 1 5.30823 4.48445 4.70421 -5.90863 -3.44598 0.00891271
3 2 4.78585 3.70832 4.12666 -8.61346 -1.15393 24.6632
ITEM: TIMESTEP
50300
ITEM: NUMBER OF ATOMS
6
ITEM: BOX BOUNDS pp pp pp
0.0000000000000000e+00 1.0000000000000000e+01
0.0000000000000000e+00 1.0000000000000000e+01
0.0000000000000000e+00 1.0000000000000000e+01
ITEM: ATOMS id type x y z vx vy vz
6 2 5.34457 6.35936 4.25419 -6.83498 13.0672 -25.558
1 1 5.1725 5.63548 5.11921 6.51984 -2.61182 -0.484405
4 2 4.68241 3.94726 3.91051 -18.4714 10.4277 7.65466
5 2 5.31707 6.02493 6.15026 13.6971 -10.3202 -18.3538
2 1 4.82679 4.36335 4.87883 -7.06711 0.560411 2.51816
3 2 4.6669 3.68193 5.71028 18.1306 11.2701 12.0227
ITEM: TIMESTEP
50400
ITEM: NUMBER OF ATOMS
6
ITEM: BOX BOUNDS pp pp pp
0.0000000000000000e+00 1.0000000000000000e+01
0.0000000000000000e+00 1.0000000000000000e+01
0.0000000000000000e+00 1.0000000000000000e+01
ITEM: ATOMS id type x y z vx vy vz
6 2 5.30942 6.36615 4.35699 1.33936 -33.1807 19.1753
1 1 5.46971 5.36131 4.69749 0.740036 -2.31043 -5.038
4 2 3.57617 5.11582 5.59322 1.69649 25.5775 20.714
5 2 6.45469 4.91207 4.37461 -8.78453 -16.4262 -18.8688
2 1 4.52621 4.63875 5.30844 -0.315875 4.92991 3.57127
3 2 4.71068 3.60482 5.60642 0.694335 -7.18456 -3.54284
ITEM: TIMESTEP
50500
ITEM: NUMBER OF ATOMS
6
ITEM: BOX BOUNDS pp pp pp
0.0000000000000000e+00 1.0000000000000000e+01
0.0000000000000000e+00 1.0000000000000000e+01
0.0000000000000000e+00 1.0000000000000000e+01
ITEM: ATOMS id type x y z vx vy vz
6 2 6.39041 5.13661 4.31271 8.7762 -13.7293 0.654356
1 1 5.30502 4.94229 4.40585 -2.35155 -6.396 -1.64577
4 2 5.26599 5.35477 6.48049 8.53635 -17.4899 -9.00119
5 2 4.77766 4.65775 3.57387 -26.5666 14.4588 11.6359
2 1 4.69168 5.05545 5.58649 2.78485 6.21567 1.22149
3 2 3.60773 4.87739 5.72611 4.09076 18.9093 1.76665
ITEM: TIMESTEP
50600
ITEM: NUMBER OF ATOMS
6
ITEM: BOX BOUNDS pp pp pp
0.0000000000000000e+00 1.0000000000000000e+01
0.0000000000000000e+00 1.0000000000000000e+01
0.0000000000000000e+00 1.0000000000000000e+01
ITEM: ATOMS id type x y z vx vy vz
6 2 4.69567 3.5694 4.55605 -26.9702 -19.9478 14.9743
1 1 4.82885 4.6294 4.47568 -4.98933 0.422526 3.22125
4 2 5.43471 4.92407 6.48698 -1.1329 -11.5934 -0.329441
5 2 4.54642 5.1489 3.48935 1.40274 3.2871 -7.7129
2 1 5.17304 5.36536 5.52781 5.25924 2.7159 -2.1927
3 2 5.30308 6.41965 5.42782 23.4842 -9.14357 -19.1882
ITEM: TIMESTEP
50700
ITEM: NUMBER OF ATOMS
6
ITEM: BOX BOUNDS pp pp pp
0.0000000000000000e+00 1.0000000000000000e+01
0.0000000000000000e+00 1.0000000000000000e+01
0.0000000000000000e+00 1.0000000000000000e+01
ITEM: ATOMS id type x y z vx vy vz
6 2 3.44465 5.17761 5.25752 26.2289 20.3743 -13.305
1 1 4.41698 4.77248 4.79631 -4.88686 1.42367 5.69556
4 2 5.62422 6.00635 5.94315 5.32491 8.0551 -8.66119
5 2 4.2995 3.99958 4.04799 -6.61403 -7.03506 10.926
2 1 5.59137 5.22747 5.20353 2.54233 -0.985116 -4.79864
3 2 6.53458 4.81675 4.7551 2.99781 -26.6202 0.35248
ITEM: TIMESTEP
50800
ITEM: NUMBER OF ATOMS
6
ITEM: BOX BOUNDS pp pp pp
0.0000000000000000e+00 1.0000000000000000e+01
0.0000000000000000e+00 1.0000000000000000e+01
0.0000000000000000e+00 1.0000000000000000e+01
ITEM: ATOMS id type x y z vx vy vz
6 2 3.80989 5.84524 4.65134 -3.68719 9.90939 -11.9479
1 1 4.38147 5.15295 5.19498 0.0130638 3.83828 5.20377
4 2 6.04943 5.22662 3.84798 -12.4976 -26.2592 -2.95192
5 2 4.00274 4.75544 6.11408 28.4435 25.0454 -1.71128
2 1 5.61395 4.85079 4.80924 -1.039 -4.47988 -4.18155
3 2 6.19497 4.12778 5.33816 -0.0335931 -1.05019 4.43033
ITEM: TIMESTEP
50900
ITEM: NUMBER OF ATOMS
6
ITEM: BOX BOUNDS pp pp pp
0.0000000000000000e+00 1.0000000000000000e+01
0.0000000000000000e+00 1.0000000000000000e+01
0.0000000000000000e+00 1.0000000000000000e+01
ITEM: ATOMS id type x y z vx vy vz
6 2 3.70338 5.729 5.40341 5.7247 5.07784 10.491
1 1 4.77637 5.56217 5.26292 3.40773 0.700268 0.325398
4 2 4.55006 3.66094 4.41237 -30.3017 -16.6248 23.157
5 2 5.48729 6.35707 5.59584 23.9474 35.4063 -14.6041
2 1 5.22077 4.43614 4.73758 -1.91182 -2.75022 -1.50816
3 2 6.29578 4.2728 4.58428 -17.1957 0.568018 -4.95004
ITEM: TIMESTEP
51000
ITEM: NUMBER OF ATOMS
6
ITEM: BOX BOUNDS pp pp pp
0.0000000000000000e+00 1.0000000000000000e+01
0.0000000000000000e+00 1.0000000000000000e+01
0.0000000000000000e+00 1.0000000000000000e+01
ITEM: ATOMS id type x y z vx vy vz
6 2 5.75467 5.97222 5.98819 24.4183 -7.89559 -15.384
1 1 5.24367 5.60563 5.05227 5.20697 2.38179 -4.47944
4 2 4.73473 3.75369 5.83146 2.51237 7.43055 -11.6083
5 2 5.30239 6.30264 4.20017 -6.34716 -18.618 13.0181
2 1 4.75228 4.38806 4.94518 -4.3274 -0.81438 5.9508
3 2 4.2589 4.04625 4.01236 -31.0645 0.405691 -3.55852
ITEM: TIMESTEP
51100
ITEM: NUMBER OF ATOMS
6
ITEM: BOX BOUNDS pp pp pp
0.0000000000000000e+00 1.0000000000000000e+01
0.0000000000000000e+00 1.0000000000000000e+01
0.0000000000000000e+00 1.0000000000000000e+01
ITEM: ATOMS id type x y z vx vy vz
2 1 4.54401 4.72625 5.38557 -2.44926 4.90057 3.39476
3 2 3.7698 5.30293 5.83203 25.7618 -0.21744 20.1499
5 2 5.45756 6.34289 4.46582 6.53351 5.39924 -2.21107
4 2 4.49085 3.62898 5.59612 -12.9698 -2.92023 8.06703
6 2 6.21595 4.71209 4.16858 -22.3197 -10.094 -21.9988
1 1 5.46172 5.27481 4.60933 2.70053 -4.24328 -3.73104
ITEM: TIMESTEP
51200
ITEM: NUMBER OF ATOMS
6
ITEM: BOX BOUNDS pp pp pp
0.0000000000000000e+00 1.0000000000000000e+01
0.0000000000000000e+00 1.0000000000000000e+01
0.0000000000000000e+00 1.0000000000000000e+01
ITEM: ATOMS id type x y z vx vy vz
2 1 4.75753 5.12488 5.60072 2.71795 3.7662 2.64217
3 2 5.42702 5.26404 6.49619 9.9019 -4.79296 1.10313
5 2 6.30065 4.68536 4.20958 1.38907 -30.0037 -16.9476
4 2 3.72603 5.28889 5.76362 3.54063 28.687 1.79468
6 2 4.5348 4.71612 3.51978 -14.8493 3.2691 -17.5379
1 1 5.24364 4.87891 4.40035 -2.71647 -3.52782 0.00866563
ITEM: TIMESTEP
51300
ITEM: NUMBER OF ATOMS
6
ITEM: BOX BOUNDS pp pp pp
0.0000000000000000e+00 1.0000000000000000e+01
0.0000000000000000e+00 1.0000000000000000e+01
0.0000000000000000e+00 1.0000000000000000e+01
ITEM: ATOMS id type x y z vx vy vz
2 1 5.28503 5.36409 5.47764 4.49792 2.15977 -2.87049
3 2 5.38709 5.0017 6.47768 6.4626 6.36752 12.0393
5 2 4.3379 3.58468 4.71615 -21.7043 27.1448 8.80868
4 2 5.63952 6.40237 5.2581 26.6528 -18.0657 0.02485
6 2 4.60964 4.96327 3.5038 -5.027 -17.1657 16.4617
1 1 4.71734 4.6399 4.52623 -5.03367 -2.01551 -0.262634
ITEM: TIMESTEP
51400
ITEM: NUMBER OF ATOMS
6
ITEM: BOX BOUNDS pp pp pp
0.0000000000000000e+00 1.0000000000000000e+01
0.0000000000000000e+00 1.0000000000000000e+01
0.0000000000000000e+00 1.0000000000000000e+01
ITEM: ATOMS id type x y z vx vy vz
2 1 5.62697 5.16703 5.13527 0.888267 -0.688492 -1.89344
3 2 5.88118 6.12151 5.61959 21.4213 -6.86774 -30.3064
5 2 3.57726 5.40978 5.17921 -7.16749 20.1363 -3.13841
4 2 6.49347 4.59392 4.80707 12.0017 -19.9337 -0.378251
6 2 4.13278 3.88675 4.38417 -13.3061 -0.635787 23.247
1 1 4.36613 4.83193 4.86572 -1.97498 1.30118 2.78098
ITEM: TIMESTEP
51500
ITEM: NUMBER OF ATOMS
6
ITEM: BOX BOUNDS pp pp pp
0.0000000000000000e+00 1.0000000000000000e+01
0.0000000000000000e+00 1.0000000000000000e+01
0.0000000000000000e+00 1.0000000000000000e+01
ITEM: ATOMS id type x y z vx vy vz
2 1 5.56403 4.74458 4.75349 -0.623782 -4.84533 -0.477458
3 2 5.89058 4.90572 3.70183 -15.8885 -25.3954 -14.6282
5 2 3.69016 5.86425 4.64086 -6.74974 5.39059 9.34939
4 2 6.2629 4.17969 5.36768 -4.7201 4.12099 -11.9918
6 2 4.14804 5.08573 6.30063 1.34751 24.7626 37.7415
1 1 4.43687 5.25242 5.24574 2.80662 4.10022 -1.24046
ITEM: TIMESTEP
51600
ITEM: NUMBER OF ATOMS
6
ITEM: BOX BOUNDS pp pp pp
0.0000000000000000e+00 1.0000000000000000e+01
0.0000000000000000e+00 1.0000000000000000e+01
0.0000000000000000e+00 1.0000000000000000e+01
ITEM: ATOMS id type x y z vx vy vz
2 1 5.14133 4.38615 4.76511 -3.66511 -1.99977 1.46573
3 2 4.4025 3.61931 4.71174 -1.74965 -1.93556 18.739
5 2 3.87934 5.83912 5.69224 10.7087 8.8825 21.2917
4 2 6.10288 4.16209 4.2992 -15.6391 -13.1682 -18.0612
6 2 5.59141 6.47141 5.30113 -16.6857 -23.7858 -18.766
1 1 4.86088 5.6061 5.23469 5.62598 4.51797 -1.73457
ITEM: TIMESTEP
51700
ITEM: NUMBER OF ATOMS
6
ITEM: BOX BOUNDS pp pp pp
0.0000000000000000e+00 1.0000000000000000e+01
0.0000000000000000e+00 1.0000000000000000e+01
0.0000000000000000e+00 1.0000000000000000e+01
ITEM: ATOMS id type x y z vx vy vz
2 1 4.66111 4.42316 5.02537 -1.50444 1.87043 4.13317
3 2 4.78897 3.6633 5.81432 -6.05739 -8.76077 4.61177
5 2 6.02164 5.86831 5.72321 7.13857 -17.6309 -37.578
4 2 3.9349 4.11941 4.25455 -31.2588 9.72013 12.0913
6 2 5.19047 6.29428 4.19091 -2.76693 9.60179 -14.5341
1 1 5.34447 5.5814 4.97621 4.26915 -1.27714 -1.16164
ITEM: TIMESTEP
51800
ITEM: NUMBER OF ATOMS
6
ITEM: BOX BOUNDS pp pp pp
0.0000000000000000e+00 1.0000000000000000e+01
0.0000000000000000e+00 1.0000000000000000e+01
0.0000000000000000e+00 1.0000000000000000e+01
ITEM: ATOMS id type x y z vx vy vz
2 1 4.55841 4.7955 5.46144 0.774022 3.2785 4.47351
3 2 4.26251 3.72942 5.57131 -8.51987 17.2436 -6.46549
5 2 6.03022 4.50172 3.88241 2.32597 -26.5549 -28.601
4 2 3.99042 5.48325 6.10505 22.4902 4.18508 8.63833
6 2 5.72651 6.22878 4.44034 23.7625 -5.55915 -2.42475
1 1 5.44098 5.20924 4.53879 -4.13576 -2.38179 -2.05217
ITEM: TIMESTEP
51900
ITEM: NUMBER OF ATOMS
6
ITEM: BOX BOUNDS pp pp pp
0.0000000000000000e+00 1.0000000000000000e+01
0.0000000000000000e+00 1.0000000000000000e+01
0.0000000000000000e+00 1.0000000000000000e+01
ITEM: ATOMS id type x y z vx vy vz
2 1 4.83594 5.21189 5.61907 4.4524 1.94797 0.757597
3 2 3.88083 5.64581 5.82452 9.0978 31.5026 3.05803
5 2 4.50305 4.90089 3.53218 -1.80448 3.49445 10.4882
4 2 5.4932 5.12074 6.45902 1.86044 -2.57491 -8.98619
6 2 6.19153 4.33222 4.08502 -15.9293 -25.9312 4.51843
1 1 5.1585 4.78811 4.38941 -3.88379 -2.49269 -1.51946
ITEM: TIMESTEP
52000
ITEM: NUMBER OF ATOMS
6
ITEM: BOX BOUNDS pp pp pp
0.0000000000000000e+00 1.0000000000000000e+01
0.0000000000000000e+00 1.0000000000000000e+01
0.0000000000000000e+00 1.0000000000000000e+01
ITEM: ATOMS id type x y z vx vy vz
2 1 5.38014 5.35292 5.41778 5.26845 -1.98594 -5.00601
3 2 5.99343 6.20906 5.13145 17.5376 -11.6633 -12.1002
5 2 4.61451 4.80338 3.48274 5.06986 -10.5045 21.5986
4 2 5.3894 5.17795 6.52514 -4.42483 10.0484 18.3613
6 2 4.07251 3.81942 4.91145 -10.004 19.7996 13.8883
1 1 4.61421 4.64622 4.57812 -5.9548 1.34142 1.50251
ITEM: TIMESTEP
52100
ITEM: NUMBER OF ATOMS
6
ITEM: BOX BOUNDS pp pp pp
0.0000000000000000e+00 1.0000000000000000e+01
0.0000000000000000e+00 1.0000000000000000e+01
0.0000000000000000e+00 1.0000000000000000e+01
ITEM: ATOMS id type x y z vx vy vz
5 2 3.95231 3.91529 4.70869 -19.6406 -26.3062 25.6722
1 1 4.34597 4.8822 4.95154 1.23853 5.83584 2.53595
6 2 3.5823 5.65989 5.05843 3.80903 8.64155 -0.0778409
2 1 5.65158 5.1208 5.04863 1.8503 -2.12733 -2.30052
3 2 6.43009 4.2989 4.94364 -18.6802 -14.6308 2.27146
4 2 6.06687 6.08983 5.28914 -2.29495 -11.8955 -30.6713
ITEM: TIMESTEP
52200
ITEM: NUMBER OF ATOMS
6
ITEM: BOX BOUNDS pp pp pp
0.0000000000000000e+00 1.0000000000000000e+01
0.0000000000000000e+00 1.0000000000000000e+01
0.0000000000000000e+00 1.0000000000000000e+01
ITEM: ATOMS id type x y z vx vy vz
5 2 4.35298 5.42884 6.38375 23.9307 13.8079 -9.37001
1 1 4.50926 5.34148 5.2743 5.09943 5.12366 2.15981
6 2 3.6635 5.80611 4.70035 -7.42126 -4.72911 -9.85386
2 1 5.50039 4.65345 4.72535 -5.56013 -5.19261 -0.711824
3 2 6.26954 4.24374 5.29239 9.07824 3.59539 -5.56567
4 2 5.60147 4.5813 3.62956 -20.098 -11.8526 7.53526
ITEM: TIMESTEP
52300
ITEM: NUMBER OF ATOMS
6
ITEM: BOX BOUNDS pp pp pp
0.0000000000000000e+00 1.0000000000000000e+01
0.0000000000000000e+00 1.0000000000000000e+01
0.0000000000000000e+00 1.0000000000000000e+01
ITEM: ATOMS id type x y z vx vy vz
5 2 5.64488 6.40237 4.91566 6.65282 -12.2944 -19.0061
1 1 4.94888 5.62653 5.21497 2.66149 1.01377 -2.73508
6 2 4.14633 5.90029 5.86451 33.1704 -7.71009 6.96366
2 1 5.04689 4.38283 4.78512 -2.31644 1.76601 2.76191
3 2 5.87123 4.00841 4.12673 -24.2309 3.71602 -12.3327
4 2 4.39043 3.57702 5.09381 -19.7041 -16.8356 24.0555
ITEM: TIMESTEP
52400
ITEM: NUMBER OF ATOMS
6
ITEM: BOX BOUNDS pp pp pp
0.0000000000000000e+00 1.0000000000000000e+01
0.0000000000000000e+00 1.0000000000000000e+01
0.0000000000000000e+00 1.0000000000000000e+01
ITEM: ATOMS id type x y z vx vy vz
5 2 5.13547 6.29727 4.19398 -0.935515 12.8473 1.41078
1 1 5.39748 5.51283 4.89678 0.263521 -6.88883 -5.37494
6 2 6.32675 5.70469 5.45641 23.0673 -10.0554 -12.2923
2 1 4.60239 4.48735 5.10698 -1.03252 2.98553 7.6185
3 2 3.67819 4.33293 4.50631 -18.3115 19.6359 1.77741
4 2 4.86364 3.66251 5.80031 5.34325 24.0843 -17.6303
ITEM: TIMESTEP
52500
ITEM: NUMBER OF ATOMS
6
ITEM: BOX BOUNDS pp pp pp
0.0000000000000000e+00 1.0000000000000000e+01
0.0000000000000000e+00 1.0000000000000000e+01
0.0000000000000000e+00 1.0000000000000000e+01
ITEM: ATOMS id type x y z vx vy vz
5 2 5.93726 6.0934 4.384 8.90151 -18.5399 11.5597
1 1 5.40953 5.12548 4.50716 -3.98733 -4.58305 -2.96757
6 2 5.62361 4.40996 3.69402 -26.7996 -2.48153 4.74713
2 1 4.58433 4.87818 5.49991 6.23984 7.02624 2.38453
3 2 4.40412 5.5719 6.26437 13.6445 -10.684 -6.94195
4 2 4.11061 3.8807 5.57515 -22.5875 2.59223 -2.41727
ITEM: TIMESTEP
52600
ITEM: NUMBER OF ATOMS
6
ITEM: BOX BOUNDS pp pp pp
0.0000000000000000e+00 1.0000000000000000e+01
0.0000000000000000e+00 1.0000000000000000e+01
0.0000000000000000e+00 1.0000000000000000e+01
ITEM: ATOMS id type x y z vx vy vz
5 2 5.85514 4.02747 4.21415 -17.5859 -14.2204 9.63199
1 1 5.0731 4.72056 4.4011 -6.20706 -2.59251 3.79641
6 2 4.44719 5.0539 3.59937 -1.22845 8.65409 -6.30328
2 1 4.92432 5.27835 5.58735 6.28283 2.33424 -4.76994
3 2 5.5742 4.97135 6.4758 4.90458 -11.3971 6.47369
4 2 4.15661 5.95979 5.85011 13.0068 20.0409 1.79827
ITEM: TIMESTEP
52700
ITEM: NUMBER OF ATOMS
6
ITEM: BOX BOUNDS pp pp pp
0.0000000000000000e+00 1.0000000000000000e+01
0.0000000000000000e+00 1.0000000000000000e+01
0.0000000000000000e+00 1.0000000000000000e+01
ITEM: ATOMS id type x y z vx vy vz
5 2 3.69625 4.12468 5.12837 -23.5896 7.15973 3.72062
1 1 4.55908 4.66826 4.64351 -2.33365 5.15874 6.14632
6 2 4.56753 4.68312 3.54493 0.0415713 -17.1683 2.71398
2 1 5.44572 5.32991 5.36007 5.53247 -3.48428 -5.83212
3 2 5.39078 5.31393 6.42632 -6.23876 14.59 -5.21063
4 2 6.29072 5.8997 4.85952 -8.33063 -24.5345 -4.96804
ITEM: TIMESTEP
52800
ITEM: NUMBER OF ATOMS
6
ITEM: BOX BOUNDS pp pp pp
0.0000000000000000e+00 1.0000000000000000e+01
0.0000000000000000e+00 1.0000000000000000e+01
0.0000000000000000e+00 1.0000000000000000e+01
ITEM: ATOMS id type x y z vx vy vz
5 2 3.70733 5.80721 4.91767 17.033 -6.06595 -9.63836
1 1 4.34279 4.95312 5.03252 -0.158578 4.34456 5.22278
6 2 3.83942 3.95994 5.1132 2.35767 20.5197 18.4109
2 1 5.66311 5.05132 4.9663 -2.80237 -2.31875 -5.26027
3 2 6.15072 6.00803 4.90933 2.83222 -24.2376 -20.7041
4 2 6.23466 4.17148 5.0756 13.06 -14.3559 12.3784
ITEM: TIMESTEP
52900
ITEM: NUMBER OF ATOMS
6
ITEM: BOX BOUNDS pp pp pp
0.0000000000000000e+00 1.0000000000000000e+01
0.0000000000000000e+00 1.0000000000000000e+01
0.0000000000000000e+00 1.0000000000000000e+01
ITEM: ATOMS id type x y z vx vy vz
5 2 3.7102 5.76136 4.72062 -2.52525 -6.47505 11.1719
1 1 4.56838 5.41261 5.30276 5.91778 4.4524 -1.77721
6 2 4.75556 5.76901 6.26891 14.5865 19.5563 9.94026
2 1 5.42935 4.59158 4.70769 -5.8686 -3.93626 2.57375
3 2 5.2446 4.22346 3.65955 -16.7869 -24.0604 -17.4754
4 2 6.31913 4.19591 5.22824 4.1396 4.82878 -13.1284
ITEM: TIMESTEP
53000
ITEM: NUMBER OF ATOMS
6
ITEM: BOX BOUNDS pp pp pp
0.0000000000000000e+00 1.0000000000000000e+01
0.0000000000000000e+00 1.0000000000000000e+01
0.0000000000000000e+00 1.0000000000000000e+01
ITEM: ATOMS id type x y z vx vy vz
5 2 4.4645 6.0227 6.04589 9.32993 22.1895 19.8761
1 1 5.03982 5.63641 5.18453 7.35907 -0.751524 -3.62197
6 2 5.62604 6.36207 4.56279 -13.6523 -3.7902 -7.33599
2 1 4.95718 4.36131 4.81806 -6.68912 -2.29654 2.39592
3 2 4.39291 3.64106 5.41882 22.127 16.1692 0.536441
4 2 5.5548 4.0009 3.94347 -25.7878 1.75257 1.5331
ITEM: TIMESTEP
53100
ITEM: NUMBER OF ATOMS
6
ITEM: BOX BOUNDS pp pp pp
0.0000000000000000e+00 1.0000000000000000e+01
0.0000000000000000e+00 1.0000000000000000e+01
0.0000000000000000e+00 1.0000000000000000e+01
ITEM: ATOMS id type x y z vx vy vz
2 1 4.55203 4.52907 5.17824 -2.62832 4.3258 5.81731
4 2 3.55127 4.62824 4.90934 -10.4156 8.18937 21.253
6 2 5.13427 6.31897 4.17986 3.35214 14.8264 0.506117
3 2 4.86972 3.72752 5.81152 -1.43587 -13.6559 -1.68713
5 2 6.495 5.39711 5.09173 -21.1659 -11.9898 -19.6475
1 1 5.44396 5.46486 4.82255 5.11784 -4.1051 -5.85293
ITEM: TIMESTEP
53200
ITEM: NUMBER OF ATOMS
6
ITEM: BOX BOUNDS pp pp pp
0.0000000000000000e+00 1.0000000000000000e+01
0.0000000000000000e+00 1.0000000000000000e+01
0.0000000000000000e+00 1.0000000000000000e+01
ITEM: ATOMS id type x y z vx vy vz
2 1 4.62129 4.95048 5.54356 1.59952 5.12776 1.90418
4 2 4.74917 5.62018 6.45291 19.5199 1.40472 23.2367
6 2 6.07754 5.8344 4.35657 2.15412 -18.5296 -2.19702
3 2 3.86961 4.13429 5.63504 -20.1462 8.16108 11.1414
5 2 5.21041 4.36936 3.5882 -19.6338 0.346955 -15.9365
1 1 5.38674 5.05299 4.45384 -0.0800692 -4.40464 -3.26743
ITEM: TIMESTEP
53300
ITEM: NUMBER OF ATOMS
6
ITEM: BOX BOUNDS pp pp pp
0.0000000000000000e+00 1.0000000000000000e+01
0.0000000000000000e+00 1.0000000000000000e+01
0.0000000000000000e+00 1.0000000000000000e+01
ITEM: ATOMS id type x y z vx vy vz
2 1 5.01478 5.32254 5.58568 7.68196 5.58557 3.19309
4 2 5.59471 4.91213 6.4139 -18.6285 0.274358 -13.4646
6 2 5.50172 3.6871 4.28059 -19.4019 -9.26489 -1.95699
3 2 4.53652 6.30933 5.76325 24.8476 -4.49852 -9.38521
5 2 4.41354 5.04842 3.59745 0.304936 1.63982 -16.634
1 1 4.98152 4.68103 4.40984 -6.60126 -4.59118 0.284638
ITEM: TIMESTEP
53400
ITEM: NUMBER OF ATOMS
6
ITEM: BOX BOUNDS pp pp pp
0.0000000000000000e+00 1.0000000000000000e+01
0.0000000000000000e+00 1.0000000000000000e+01
0.0000000000000000e+00 1.0000000000000000e+01
ITEM: ATOMS id type x y z vx vy vz
2 1 5.52371 5.30345 5.29752 4.75462 0.125204 -3.55595
4 2 5.50786 5.54522 6.34788 11.0839 12.0129 5.23188
6 2 3.54288 4.48214 5.19424 -27.2348 19.9502 7.78034
3 2 6.40008 5.47834 4.76071 19.6383 -23.6358 -6.00479
5 2 4.46777 4.46415 3.61716 -3.15533 -8.94769 18.7121
1 1 4.48333 4.69905 4.70935 -4.78248 -0.0731419 1.39757
ITEM: TIMESTEP
53500
ITEM: NUMBER OF ATOMS
6
ITEM: BOX BOUNDS pp pp pp
0.0000000000000000e+00 1.0000000000000000e+01
0.0000000000000000e+00 1.0000000000000000e+01
0.0000000000000000e+00 1.0000000000000000e+01
ITEM: ATOMS id type x y z vx vy vz
2 1 5.65479 4.98 4.90647 1.21939 -5.39091 -5.75739
4 2 6.24708 5.78212 4.4417 13.144 -5.06059 -21.3848
6 2 3.77346 5.92703 4.85748 17.8 -8.94888 -11.8542
3 2 6.2962 4.05916 5.15414 8.52971 -0.906299 9.51886
5 2 3.77293 4.19639 5.55065 -8.20704 1.1487 23.8015
1 1 4.33789 5.02293 5.09336 -3.84329 6.54624 5.75056
ITEM: TIMESTEP
53600
ITEM: NUMBER OF ATOMS
6
ITEM: BOX BOUNDS pp pp pp
0.0000000000000000e+00 1.0000000000000000e+01
0.0000000000000000e+00 1.0000000000000000e+01
0.0000000000000000e+00 1.0000000000000000e+01
ITEM: ATOMS id type x y z vx vy vz
2 1 5.35483 4.52197 4.70548 -2.98377 -7.12897 -4.28452
4 2 4.95946 3.91639 3.86302 -11.9586 0.946285 35.594
6 2 3.65545 5.8143 4.93511 -5.99391 9.97054 16.1706
3 2 6.31045 4.17512 5.0292 -1.87241 4.15183 -0.82741
5 2 5.03176 6.04864 6.11902 11.2336 17.5126 -20.8172
1 1 4.64897 5.48182 5.29917 3.70475 4.39475 1.75684
ITEM: TIMESTEP
53700
ITEM: NUMBER OF ATOMS
6
ITEM: BOX BOUNDS pp pp pp
0.0000000000000000e+00 1.0000000000000000e+01
0.0000000000000000e+00 1.0000000000000000e+01
0.0000000000000000e+00 1.0000000000000000e+01
ITEM: ATOMS id type x y z vx vy vz
2 1 4.88324 4.3558 4.86727 -5.32368 0.921397 -1.32909
4 2 4.45234 3.68335 5.59441 -3.51806 -16.998 34.523
6 2 4.97433 6.12736 6.08237 21.3318 4.6969 5.68421
3 2 5.05012 3.95106 3.89115 -21.1147 -5.66259 7.11981
5 2 5.54571 6.35469 4.40699 -15.4106 -2.63703 -16.3623
1 1 5.11508 5.63439 5.13499 6.89396 0.80742 -1.26947
ITEM: TIMESTEP
53800
ITEM: NUMBER OF ATOMS
6
ITEM: BOX BOUNDS pp pp pp
0.0000000000000000e+00 1.0000000000000000e+01
0.0000000000000000e+00 1.0000000000000000e+01
0.0000000000000000e+00 1.0000000000000000e+01
ITEM: ATOMS id type x y z vx vy vz
2 1 4.54257 4.60513 5.25718 0.623081 2.5264 4.22506
4 2 4.74262 3.66436 5.79142 -11.3063 11.1472 -8.01532
6 2 6.51526 5.09276 4.71561 -11.871 -22.5606 -21.2541
3 2 3.41149 4.84594 5.32398 -10.1106 16.1227 25.0286
5 2 5.24834 6.34582 4.23628 -0.515089 2.64342 -1.38482
1 1 5.46454 5.39912 4.73733 2.21368 -3.14345 -3.75295
ITEM: TIMESTEP
53900
ITEM: NUMBER OF ATOMS
6
ITEM: BOX BOUNDS pp pp pp
0.0000000000000000e+00 1.0000000000000000e+01
0.0000000000000000e+00 1.0000000000000000e+01
0.0000000000000000e+00 1.0000000000000000e+01
ITEM: ATOMS id type x y z vx vy vz
2 1 4.67956 5.01368 5.58109 0.787934 5.87813 2.6729
4 2 3.67959 4.54867 5.7499 7.00061 19.6609 -1.21673
6 2 4.96242 4.45093 3.52847 -13.6275 12.9135 -6.32738
3 2 5.01787 5.53852 6.4283 24.6544 -20.5243 -23.8094
5 2 6.29708 5.44202 4.2815 6.07821 -19.475 -10.8924
1 1 5.32426 4.98795 4.42006 -2.81089 -5.25503 0.872383
ITEM: TIMESTEP
54000
ITEM: NUMBER OF ATOMS
6
ITEM: BOX BOUNDS pp pp pp
0.0000000000000000e+00 1.0000000000000000e+01
0.0000000000000000e+00 1.0000000000000000e+01
0.0000000000000000e+00 1.0000000000000000e+01
ITEM: ATOMS id type x y z vx vy vz
2 1 5.11688 5.3604 5.55352 4.15547 -1.89774 -3.86245
4 2 4.96461 6.39095 5.59726 24.7095 28.3815 -14.9166
6 2 4.43941 5.04872 3.5297 -3.77658 9.4175 -1.92196
3 2 5.56688 4.90382 6.45207 4.11057 -0.658022 7.88805
5 2 5.02075 3.55718 4.37057 -28.2392 4.85246 14.6453
1 1 4.88403 4.6479 4.45086 -3.88728 -1.62636 3.38454
ITEM: TIMESTEP
54100
ITEM: NUMBER OF ATOMS
6
ITEM: BOX BOUNDS pp pp pp
0.0000000000000000e+00 1.0000000000000000e+01
0.0000000000000000e+00 1.0000000000000000e+01
0.0000000000000000e+00 1.0000000000000000e+01
ITEM: ATOMS id type x y z vx vy vz
5 2 3.47329 4.84626 5.31224 -1.46606 28.5501 7.29383
1 1 4.42452 4.75606 4.75986 -0.446403 1.41814 3.77287
6 2 4.39754 4.18093 3.86126 -3.91264 0.155226 20.84
3 2 5.67642 5.83154 6.17665 6.93093 16.1125 1.31252
2 1 5.5661 5.24221 5.23913 0.432796 -2.9422 -6.69266
4 2 6.56699 5.16147 4.66373 -1.39009 -26.6569 5.34605
ITEM: TIMESTEP
54200
ITEM: NUMBER OF ATOMS
6
ITEM: BOX BOUNDS pp pp pp
0.0000000000000000e+00 1.0000000000000000e+01
0.0000000000000000e+00 1.0000000000000000e+01
0.0000000000000000e+00 1.0000000000000000e+01
ITEM: ATOMS id type x y z vx vy vz
5 2 3.82638 5.92401 4.75111 -0.338214 8.55957 -5.95051
1 1 4.36154 5.10579 5.15935 4.39897 2.80643 2.41683
6 2 3.79988 4.51433 5.92308 3.78086 18.944 21.3904
3 2 6.15901 5.50278 4.09194 -31.0961 -37.5445 -0.191264
2 1 5.63861 4.89285 4.84047 -0.761842 -1.99289 -4.09376
4 2 6.21535 4.07466 5.23792 -15.6869 0.346657 4.73368
ITEM: TIMESTEP
54300
ITEM: NUMBER OF ATOMS
6
ITEM: BOX BOUNDS pp pp pp
0.0000000000000000e+00 1.0000000000000000e+01
0.0000000000000000e+00 1.0000000000000000e+01
0.0000000000000000e+00 1.0000000000000000e+01
ITEM: ATOMS id type x y z vx vy vz
5 2 3.63548 5.81326 5.21726 15.7444 -3.39039 6.05874
1 1 4.73594 5.54449 5.27066 3.48435 0.293155 -1.16278
6 2 5.33296 6.21578 5.88771 29.1884 13.3408 -15.4863
3 2 4.6724 3.79434 4.12449 -29.6741 -27.5271 9.13774
2 1 5.26884 4.44992 4.72634 -4.83082 1.08842 1.9543
4 2 6.30461 4.2428 4.80812 0.785941 1.11376 -9.14193
ITEM: TIMESTEP
54400
ITEM: NUMBER OF ATOMS
6
ITEM: BOX BOUNDS pp pp pp
0.0000000000000000e+00 1.0000000000000000e+01
0.0000000000000000e+00 1.0000000000000000e+01
0.0000000000000000e+00 1.0000000000000000e+01
ITEM: ATOMS id type x y z vx vy vz
5 2 5.39173 6.03313 6.06841 28.1032 -7.01333 2.98564
1 1 5.20429 5.62927 5.08232 3.3066 -0.904737 -5.15011
6 2 5.4147 6.25999 4.21602 -9.19183 -26.2684 13.845
3 2 4.56142 3.71023 5.79152 6.74836 11.1035 9.35974
2 1 4.80085 4.37635 4.92035 -2.76731 2.80225 2.98636
4 2 4.57339 3.9293 3.89398 -32.086 -0.432765 -0.406924
ITEM: TIMESTEP
54500
ITEM: NUMBER OF ATOMS
6
ITEM: BOX BOUNDS pp pp pp
0.0000000000000000e+00 1.0000000000000000e+01
0.0000000000000000e+00 1.0000000000000000e+01
0.0000000000000000e+00 1.0000000000000000e+01
ITEM: ATOMS id type x y z vx vy vz
5 2 6.38498 4.83801 4.44224 -17.0313 -13.9309 -21.7297
1 1 5.46653 5.31579 4.64679 -0.246046 -6.50306 -1.70014
6 2 5.3549 6.35598 4.32196 2.53982 21.0547 -7.62911
3 2 4.65776 3.64418 5.63777 -4.81648 14.4028 -5.00471
2 1 4.53451 4.68466 5.35477 -1.2111 3.39541 3.45531
4 2 3.5924 5.15606 5.58128 36.6714 15.5043 13.4488
ITEM: TIMESTEP
54600
ITEM: NUMBER OF ATOMS
6
ITEM: BOX BOUNDS pp pp pp
0.0000000000000000e+00 1.0000000000000000e+01
0.0000000000000000e+00 1.0000000000000000e+01
0.0000000000000000e+00 1.0000000000000000e+01
ITEM: ATOMS id type x y z vx vy vz
5 2 4.65727 4.54821 3.49297 -22.7193 -1.3275 -3.52316
1 1 5.2671 4.9166 4.40444 -2.81092 -1.99606 0.230162
6 2 6.335 5.04933 4.25536 -1.86466 -29.9976 1.51326
3 2 3.68013 4.97067 5.75045 -8.81649 26.6079 2.94183
2 1 4.73098 5.08405 5.60238 3.56324 2.36015 -1.33874
4 2 5.35294 5.42364 6.42177 24.4358 0.37868 12.278
ITEM: TIMESTEP
54700
ITEM: NUMBER OF ATOMS
6
ITEM: BOX BOUNDS pp pp pp
0.0000000000000000e+00 1.0000000000000000e+01
0.0000000000000000e+00 1.0000000000000000e+01
0.0000000000000000e+00 1.0000000000000000e+01
ITEM: ATOMS id type x y z vx vy vz
5 2 4.55234 5.09625 3.57369 3.56528 -9.53347 15.6964
1 1 4.76452 4.63367 4.50024 -4.95083 -0.956827 0.742442
6 2 4.68477 3.51597 4.5935 -25.316 22.7523 14.3478
3 2 5.33885 6.49074 5.39301 25.94 -1.68421 -16.0448
2 1 5.23186 5.36275 5.49588 4.35777 -0.729738 -1.46084
4 2 5.46959 4.93931 6.48787 2.87775 8.56262 -5.43885
ITEM: TIMESTEP
54800
ITEM: NUMBER OF ATOMS
6
ITEM: BOX BOUNDS pp pp pp
0.0000000000000000e+00 1.0000000000000000e+01
0.0000000000000000e+00 1.0000000000000000e+01
0.0000000000000000e+00 1.0000000000000000e+01
ITEM: ATOMS id type x y z vx vy vz
5 2 4.23669 3.99934 4.12313 -15.469 -11.9982 23.0771
1 1 4.38676 4.8123 4.83225 -0.182398 3.35115 2.18472
6 2 3.54957 5.20701 5.30434 -16.9312 23.3352 7.96389
3 2 6.47386 4.7793 4.71698 -11.4457 -12.8233 3.79814
2 1 5.61338 5.1887 5.16519 3.75091 -3.67758 -3.04535
4 2 5.74074 6.00208 5.88795 1.32325 5.37618 -24.5838
ITEM: TIMESTEP
54900
ITEM: NUMBER OF ATOMS
6
ITEM: BOX BOUNDS pp pp pp
0.0000000000000000e+00 1.0000000000000000e+01
0.0000000000000000e+00 1.0000000000000000e+01