LAMMPS data file via write_data, version 2 Aug 2023, timestep = 69575, units = metal

6 atoms
2 atom types

0 10 xlo xhi
0 10 ylo yhi
0 10 zlo zhi

Masses

1 12.0107
2 1.00794

Atoms # atomic

1 1 5.348783887540656 5.004936051929732 4.429672370287586 0 0 0
5 2 5.277701520818959 4.175090214446761 3.7048588332170955 0 0 0
6 2 5.9831361027862195 5.830119417611212 4.12773840974344 0 0 0
3 2 4.040908858181992 4.193593766131923 5.891070214797437 0 0 0
4 2 4.677373518332084 5.798461707031344 6.334112151705565 0 0 0
2 1 4.653174256699446 4.995258414545417 5.565633248150624 0 0 0

Velocities

1 -1.1442468287395493 -6.508024789706214 -2.6972774936260184
5 -28.17787489644477 28.54309250223942 16.637563635561186
6 1.6337566260815026 -13.19781602522186 -1.823878903010869
3 -8.207491969542566 14.958528137193664 4.159195560203225
4 27.276140653118023 0.7858885607170203 9.344845093282906
2 1.7715895161190947 3.8989724165113646 0.3208491317818457
